/*--------------------------------*- C++ -*----------------------------------*\
| =========                 |                                                 |
| \\      /  F ield         | OpenFOAM: The Open Source CFD Toolbox           |
|  \\    /   O peration     | Version:  2206                                  |
|   \\  /    A nd           | Website:  www.openfoam.com                      |
|    \\/     M anipulation  |                                                 |
\*---------------------------------------------------------------------------*/
FoamFile
{
    version     2.0;
    format      ascii;
    arch        "LSB;label=32;scalar=64";
    class       volScalarField;
    location    "0.4";
    object      p;
}
// * * * * * * * * * * * * * * * * * * * * * * * * * * * * * * * * * * * * * //

dimensions      [0 2 -2 0 0 0 0];

internalField   nonuniform List<scalar> 
1600
(
3.70449e-06
-0.00118576
-0.00391511
-0.00758826
-0.0115327
-0.0152525
-0.01839
-0.0206927
-0.0219931
-0.0221917
-0.0212426
-0.0191439
-0.0159291
-0.0116612
-0.00642743
-0.00033548
0.00648966
0.0139086
0.0217701
0.029913
0.0381694
0.0463666
0.0543301
0.0618872
0.0688701
0.0751203
0.0804932
0.084863
0.0881279
0.0902165
0.091094
0.090769
0.0893019
0.0868137
0.0834977
0.0796331
0.0756
0.0719071
0.0692228
0.068106
0.00119589
4.19904e-06
-0.00221209
-0.00506344
-0.00810624
-0.0109751
-0.0133855
-0.0151243
-0.0160413
-0.0160408
-0.0150726
-0.0131251
-0.0102193
-0.00640332
-0.00174823
0.00365524
0.00969993
0.0162648
0.0232176
0.0304169
0.0377147
0.0449591
0.0519968
0.0586766
0.0648526
0.0703881
0.0751596
0.0790615
0.0820109
0.0839527
0.0848649
0.0847646
0.0837135
0.0818248
0.0792691
0.0762802
0.0731602
0.0702848
0.0681025
0.0669912
0.00393931
0.0022117
-3.50284e-05
-0.00259434
-0.00522301
-0.00765119
-0.00965528
-0.0110637
-0.0117507
-0.0116328
-0.0106637
-0.00883035
-0.00614806
-0.00265659
0.00158318
0.00649227
0.0119762
0.0179276
0.024228
0.0307509
0.0373631
0.043928
0.0503079
0.0563668
0.0619742
0.067008
0.0713589
0.0749339
0.0776614
0.0794947
0.0804173
0.0804469
0.07964
0.0780954
0.0759572
0.0734164
0.0707129
0.0681285
0.0659219
0.0643042
0.00770217
0.00509157
0.00245047
-0.000178457
-0.00273343
-0.00501461
-0.00684781
-0.00810129
-0.00867667
-0.00850717
-0.00755613
-0.00581413
-0.003296
-3.7938e-05
0.00390506
0.00846164
0.0135462
0.0190611
0.0248985
0.0309425
0.0370712
0.0431591
0.0490794
0.0547072
0.059922
0.0646114
0.0686746
0.0720258
0.0745986
0.0763493
0.0772612
0.0773475
0.0766546
0.0752642
0.0732934
0.070894
0.0682584
0.0656015
0.0630105
0.0605424
0.0118901
0.00825164
0.00504272
0.00216214
-0.000495411
-0.00278618
-0.00457757
-0.00577498
-0.00630725
-0.00612603
-0.00520636
-0.00354526
-0.00115981
0.00191474
0.00562684
0.0099104
0.0146865
0.0198652
0.025347
0.0310247
0.0367852
0.042512
0.0480868
0.0533926
0.0583165
0.0627526
0.0666054
0.0697929
0.0722506
0.0739346
0.0748246
0.0749265
0.0742749
0.0729334
0.0709928
0.0685699
0.0658184
0.0629014
0.059748
0.0562791
0.016077
0.0113676
0.0074982
0.0042482
0.00136583
-0.0010481
-0.00289461
-0.00411172
-0.00465366
-0.00449038
-0.00360953
-0.00201611
0.000268684
0.00320858
0.00675344
0.0108405
0.0153955
0.0203342
0.0255634
0.0309826
0.0364857
0.0419624
0.0473009
0.0523897
0.0571207
0.0613916
0.0651095
0.0681935
0.0705781
0.0722162
0.0730817
0.0731717
0.0725077
0.0711356
0.0691225
0.0665555
0.0635582
0.0602558
0.05644
0.05192
0.0199534
0.0141782
0.00960177
0.0059064
0.00271454
9.55086e-05
-0.00187763
-0.00317065
-0.00376048
-0.00363429
-0.00279244
-0.00124864
0.000970548
0.00382634
0.00726837
0.0112354
0.0156562
0.0204502
0.0255289
0.0307965
0.0361514
0.0414882
0.0466987
0.051675
0.0563112
0.0605062
0.064167
0.0672111
0.0695696
0.0711901
0.0720389
0.0721027
0.0713898
0.0699296
0.0677685
0.0649689
0.0616332
0.0578609
0.0533272
0.0477517
0.0232864
0.0164696
0.0111683
0.00698405
0.00343011
0.00055327
-0.00159305
-0.00299784
-0.00365788
-0.00357615
-0.0027652
-0.00124774
0.000943637
0.00376658
0.00716924
0.0110906
0.0154607
0.0202016
0.0252273
0.0304452
0.0357568
0.0410591
0.0462462
0.0512111
0.0558484
0.0600559
0.0637382
0.066809
0.0691939
0.0708333
0.0716844
0.0717227
0.0709433
0.0693602
0.067002
0.0639117
0.060177
0.0558818
0.0506014
0.0439827
0.0258938
0.0180625
0.0120334
0.0073378
0.00339208
0.000226985
-0.00211883
-0.0036538
-0.00439204
-0.0043508
-0.00355419
-0.00203379
0.000171351
0.00301464
0.00644181
0.0103909
0.0147923
0.0195689
0.0246363
0.0299035
0.0352734
0.0406442
0.0459101
0.0509639
0.055698
0.0600078
0.0637932
0.0669622
0.069433
0.0711372
0.0720215
0.0720496
0.0712035
0.0694827
0.0669005
0.0634843
0.059313
0.0544618
0.0484186
0.0407683
0.0276253
0.0188013
0.0120473
0.00683057
0.0024789
-0.000988575
-0.0035444
-0.00521352
-0.00602536
-0.00601015
-0.00520286
-0.00364379
-0.00137862
0.00154132
0.00505866
0.00910969
0.013624
0.0185246
0.0237273
0.0291416
0.0346706
0.0402121
0.0456593
0.0509028
0.0558318
0.0603369
0.0643121
0.0676575
0.0702824
0.0721079
0.0730689
0.0731164
0.0722192
0.0703632
0.0675479
0.0637882
0.0591582
0.0537299
0.0469113
0.0382315
0.0283478
0.0185445
0.0110692
0.00532925
0.000568105
-0.00320366
-0.00596733
-0.00776237
-0.00863203
-0.00861856
-0.0077673
-0.00612709
-0.00375038
-0.00069361
0.00298225
0.00721107
0.011921
0.0170342
0.0224659
0.0281252
0.0339143
0.0397296
0.0454621
0.0509988
0.0562244
0.0610231
0.0652812
0.0688896
0.0717468
0.0737615
0.0748558
0.0749668
0.0740495
0.0720763
0.0690342
0.0649271
0.0598273
0.0538074
0.046199
0.0364784
0.0279358
0.0171569
0.0089625
0.00270123
-0.00246543
-0.00653394
-0.00949285
-0.011395
-0.0122965
-0.0122512
-0.0113144
-0.00954368
-0.00699824
-0.00373995
0.000166178
0.00465115
0.00964114
0.0150568
0.0208123
0.0268156
0.0329672
0.0391614
0.0452858
0.0512231
0.056852
0.0620491
0.0666915
0.0706591
0.0738379
0.0761227
0.0774208
0.0776543
0.076763
0.0747056
0.0714564
0.0670096
0.0614373
0.0548147
0.0463976
0.0356101
0.0262639
0.0145034
0.00558917
-0.00118897
-0.00675169
-0.0111017
-0.0142342
-0.016215
-0.0171128
-0.016993
-0.015921
-0.0139629
-0.0111854
-0.00765586
-0.00344366
0.00137897
0.00673587
0.0125459
0.0187218
0.0251698
0.0317885
0.0384693
0.0450961
0.0515462
0.0576914
0.0633996
0.0685371
0.0729712
0.0765736
0.0792234
0.080811
0.0812415
0.0804381
0.0783444
0.0749212
0.0701529
0.064112
0.0568776
0.0476273
0.0357317
0.0232013
0.0104441
0.000806099
-0.00648305
-0.0124278
-0.0170373
-0.0203133
-0.0223349
-0.023184
-0.0229376
-0.021672
-0.0194622
-0.0163825
-0.0125063
-0.00790765
-0.00266214
0.00315154
0.0094503
0.0161454
0.0231412
0.0303342
0.0376129
0.0448569
0.0519376
0.0587193
0.06506
0.070814
0.0758346
0.0799769
0.0831022
0.0850817
0.0858009
0.0851642
0.0830977
0.0795473
0.0744862
0.0679872
0.0601335
0.0500197
0.03696
0.0186075
0.00483021
-0.00553898
-0.0133321
-0.0196406
-0.0244806
-0.0278615
-0.0298765
-0.0306217
-0.0301869
-0.0286598
-0.0261254
-0.0226659
-0.0183613
-0.0132905
-0.0075327
-0.00116899
0.00571574
0.0130313
0.0206805
0.0285582
0.0365495
0.0445301
0.0523655
0.0599116
0.067016
0.0735199
0.0792605
0.0840748
0.0878034
0.0902957
0.0914146
0.0910421
0.0890841
0.0854684
0.0801549
0.0732154
0.0647367
0.0537236
0.0394299
0.0123291
-0.00250022
-0.0136111
-0.0218996
-0.0285488
-0.033583
-0.0370206
-0.0389708
-0.0395455
-0.0388492
-0.0369822
-0.0340405
-0.0301153
-0.0252935
-0.0196591
-0.0132948
-0.0062841
0.00128676
0.00932664
0.0177375
0.0264127
0.0352352
0.0440766
0.0527968
0.0612435
0.0692532
0.0766528
0.0832623
0.088898
0.0933773
0.0965243
0.0981752
0.0981859
0.0964376
0.0928362
0.0873244
0.079971
0.0708647
0.0589118
0.0433004
0.00419624
-0.0117257
-0.0235918
-0.0323652
-0.039326
-0.044509
-0.0479438
-0.0497581
-0.0500827
-0.0490385
-0.0467407
-0.0432979
-0.0388113
-0.0333752
-0.0270791
-0.0200091
-0.0122505
-0.00389041
0.00498003
0.0142628
0.0238509
0.033626
0.0434569
0.0531982
0.0626896
0.0717566
0.0802113
0.0878545
0.0944802
0.0998793
0.103846
0.106187
0.106725
0.105311
0.101824
0.0961851
0.0884557
0.078724
0.065787
0.0487613
-0.00598068
-0.0230455
-0.0356835
-0.0449281
-0.0521639
-0.0574388
-0.0607968
-0.0623886
-0.0623667
-0.0608724
-0.0580381
-0.053987
-0.0488315
-0.0426747
-0.0356113
-0.0277307
-0.0191194
-0.00986423
-5.51731e-05
0.0102113
0.0208293
0.0316808
0.042633
0.0535366
0.0642246
0.0745114
0.0841939
0.0930532
0.100858
0.10737
0.112349
0.115565
0.116803
0.115878
0.112632
0.106957
0.0989047
0.0885572
0.0745893
0.0560392
-0.0184151
-0.0366847
-0.0501143
-0.0598117
-0.0672753
-0.0725701
-0.0757593
-0.0770214
-0.0765364
-0.0744696
-0.0709747
-0.0661918
-0.0602466
-0.0532514
-0.0453066
-0.0365045
-0.0269317
-0.0166733
-0.00581645
0.0055458
0.0173109
0.0293632
0.0415706
0.0537819
0.0658245
0.0775032
0.0885999
0.0988749
0.10807
0.115914
0.122129
0.126439
0.128586
0.128336
0.125489
0.119898
0.111594
0.100651
0.0856041
0.0654057
-0.0333496
-0.0529003
-0.0671447
-0.0772697
-0.0848992
-0.0901215
-0.0930255
-0.0938247
-0.0927332
-0.0899467
-0.0856442
-0.0799864
-0.0731141
-0.0651499
-0.0562001
-0.0463589
-0.0357118
-0.0243405
-0.0123268
0.000242138
0.01327
0.0266463
0.0402426
0.0539085
0.0674685
0.0807193
0.0934292
0.105338
0.116158
0.125583
0.133289
0.138952
0.142256
0.142912
0.14066
0.135305
0.126848
0.115345
0.0991721
0.0771865
-0.0510623
-0.0719897
-0.0870758
-0.0975928
-0.105306
-0.110336
-0.112805
-0.112974
-0.111099
-0.107413
-0.102128
-0.0954279
-0.0874716
-0.0783926
-0.0683033
-0.0572986
-0.0454611
-0.0328665
-0.0195886
-0.00570511
0.00869717
0.0235168
0.0386328
0.0538992
0.069141
0.0841502
0.0986832
0.11246
0.125164
0.136448
0.145942
0.15326
0.15802
0.159861
0.158452
0.153529
0.145052
0.133045
0.115701
0.0917724
-0.0718772
-0.0943023
-0.110261
-0.121119
-0.128805
-0.133483
-0.135326
-0.13465
-0.13177
-0.126967
-0.120488
-0.112548
-0.103328
-0.0929708
-0.0815956
-0.069296
-0.0561493
-0.0422219
-0.027576
-0.0122759
0.00360545
0.0199805
0.0367402
0.0537482
0.0708346
0.0877909
0.104365
0.12026
0.13513
0.148588
0.160206
0.169533
0.176106
0.179475
0.179218
0.174981
0.166662
0.154237
0.135684
0.109634
-0.0961775
-0.120256
-0.137121
-0.148245
-0.155752
-0.159867
-0.16083
-0.159037
-0.154874
-0.148681
-0.140755
-0.131344
-0.120651
-0.108834
-0.0960136
-0.0822812
-0.067705
-0.0523384
-0.0362273
-0.0194178
-0.00196334
0.0160675
0.0345839
0.053465
0.0725522
0.0916425
0.110481
0.128757
0.146099
0.162077
0.176205
0.187954
0.196766
0.202085
0.203368
0.200146
0.192224
0.179507
0.159715
0.131343
-0.124426
-0.150359
-0.168168
-0.179448
-0.186562
-0.189827
-0.189577
-0.186314
-0.180516
-0.1726
-0.162919
-0.151763
-0.139359
-0.125878
-0.111441
-0.096132
-0.080007
-0.0631006
-0.0454371
-0.0270383
-0.00793223
0.0118384
0.0322078
0.053078
0.0743098
0.0957131
0.117038
0.137967
0.158107
0.176987
0.194061
0.208713
0.220276
0.22806
0.231374
0.229592
0.222392
0.209568
0.188523
0.157592
-0.157195
-0.185246
-0.204033
-0.215301
-0.221722
-0.223745
-0.22184
-0.216648
-0.208771
-0.198717
-0.186912
-0.173689
-0.159302
-0.14393
-0.127693
-0.110663
-0.0928738
-0.0743372
-0.0550487
-0.0349991
-0.0141837
0.00738814
0.0296839
0.0526372
0.0761375
0.100018
0.124044
0.1479
0.17118
0.193379
0.213889
0.232002
0.246926
0.257811
0.263777
0.263995
0.257957
0.245292
0.223007
0.189239
-0.19521
-0.225725
-0.245511
-0.256511
-0.261809
-0.262049
-0.257895
-0.25018
-0.239659
-0.22696
-0.212587
-0.196923
-0.180245
-0.162737
-0.14451
-0.125613
-0.106056
-0.0858144
-0.0648489
-0.0431114
-0.0205563
0.0028489
0.0271139
0.0522142
0.0780788
0.104577
0.131501
0.158553
0.185326
0.211291
0.235784
0.258003
0.277017
0.291787
0.301198
0.30415
0.299878
0.287763
0.264292
0.22735
-0.239415
-0.272851
-0.293623
-0.303958
-0.307506
-0.305212
-0.298015
-0.287002
-0.273128
-0.257161
-0.239694
-0.22116
-0.201852
-0.181949
-0.161539
-0.140643
-0.119229
-0.0972318
-0.0745658
-0.0511349
-0.0268445
-0.00161089
0.0246277
0.0518997
0.0801866
0.109407
0.139399
0.169899
0.200519
0.230722
0.259803
0.286869
0.310841
0.330465
0.344335
0.350997
0.349329
0.338338
0.313808
0.273279
-0.291079
-0.328033
-0.349703
-0.358743
-0.359624
-0.353744
-0.342434
-0.327122
-0.309008
-0.289023
-0.267852
-0.245968
-0.223666
-0.201104
-0.178332
-0.155323
-0.131993
-0.108224
-0.0838709
-0.0587822
-0.032804
-0.00579236
0.0223768
0.0517965
0.0825145
0.114517
0.147705
0.181875
0.216681
0.251608
0.285932
0.318687
0.348649
0.374324
0.393957
0.405641
0.407751
0.398741
0.373408
0.32878
-0.351961
-0.393205
-0.415522
-0.422258
-0.419113
-0.40817
-0.391314
-0.370413
-0.346965
-0.322075
-0.296509
-0.270756
-0.245091
-0.219621
-0.194336
-0.169139
-0.143879
-0.118366
-0.0923893
-0.0657287
-0.0381628
-0.00947831
0.0205213
0.0520053
0.0851024
0.119884
0.156339
0.194351
0.233652
0.273785
0.314047
0.353437
0.390604
0.423806
0.450885
0.469362
0.476923
0.471196
0.445544
0.396186
-0.424582
-0.471086
-0.493464
-0.49626
-0.487056
-0.468976
-0.444661
-0.416534
-0.38643
-0.355614
-0.3249
-0.294753
-0.265377
-0.236795
-0.208899
-0.1815
-0.154356
-0.127192
-0.0997165
-0.0716321
-0.0426412
-0.0124529
0.0192104
0.052605
0.0879549
0.125436
0.165152
0.207104
0.251148
0.296938
0.343853
0.390914
0.436697
0.479235
0.515932
0.543611
0.559031
0.558604
0.533545
0.478708
-0.512711
-0.56559
-0.586765
-0.582936
-0.564629
-0.536502
-0.502204
-0.464815
-0.426502
-0.388638
-0.352008
-0.316976
-0.283613
-0.251797
-0.221284
-0.191758
-0.162861
-0.134219
-0.105446
-0.0761596
-0.0459785
-0.0145289
0.0185548
0.053625
0.0910133
0.131019
0.173886
0.219775
0.268715
0.320539
0.374794
0.430623
0.486625
0.540688
0.589792
0.629955
0.656739
0.664792
0.642049
0.580945
-0.622218
-0.682487
-0.699827
-0.684939
-0.652958
-0.610744
-0.563198
-0.514088
-0.465829
-0.419764
-0.376514
-0.336222
-0.298729
-0.263698
-0.230694
-0.199237
-0.168832
-0.138984
-0.109206
-0.0790231
-0.0479684
-0.0155813
0.0185945
0.0550128
0.0941226
0.136362
0.182142
0.231821
0.285663
0.343763
0.405949
0.471632
0.539605
0.607777
0.672823
0.729933
0.773211
0.794828
0.777688
0.709813
-0.762723
-0.830456
-0.83859
-0.805298
-0.752836
-0.691018
-0.626122
-0.562467
-0.502457
-0.447148
-0.396769
-0.351068
-0.309527
-0.271506
-0.23632
-0.203288
-0.171752
-0.141088
-0.110701
-0.0800211
-0.048497
-0.0155839
0.0192638
0.0566013
0.0969989
0.141044
0.189335
0.242469
0.301003
0.365394
0.435895
0.512383
0.594109
0.679318
0.764679
0.844736
0.912007
0.955389
0.950183
0.876302
-0.950914
-1.02277
-1.01079
-0.946989
-0.86407
-0.775351
-0.688221
-0.607038
-0.533664
-0.468412
-0.410785
-0.359899
-0.314726
-0.274223
-0.237399
-0.203339
-0.171209
-0.14025
-0.109759
-0.0790794
-0.0475808
-0.014643
0.020361
0.0580804
0.0992028
0.144467
0.194671
0.250676
0.313393
0.383739
0.462557
0.550448
0.647499
0.7528
0.863635
0.974491
1.0766
1.15499
1.17407
1.09904
-1.2173
-1.27972
-1.22554
-1.11156
-0.98408
-0.859375
-0.744756
-0.643429
-0.55574
-0.480569
-0.416238
-0.360958
-0.313026
-0.270913
-0.233277
-0.198958
-0.166943
-0.136346
-0.10637
-0.0762837
-0.0453941
-0.0130209
0.0215277
0.0589793
0.100124
0.145839
0.19712
0.255103
0.321086
0.396533
0.483039
0.582225
0.695497
0.823548
0.965363
1.11671
1.26885
1.40351
1.47116
1.41136
-1.61786
-1.63098
-1.49156
-1.29673
-1.1059
-0.935007
-0.788313
-0.665546
-0.563984
-0.480141
-0.410641
-0.352517
-0.303268
-0.260833
-0.223519
-0.189932
-0.158909
-0.129458
-0.100714
-0.0718979
-0.0422765
-0.0111337
0.0222622
0.0586913
0.0990179
0.144231
0.195492
0.254192
0.322016
0.40101
0.493646
0.602835
0.731848
0.883964
1.06154
1.26422
1.48651
1.71011
1.87243
1.87292
-2.25458
-2.1159
-1.81358
-1.49441
-1.21742
-0.990515
-0.809416
-0.666454
-0.553627
-0.464014
-0.392069
-0.333473
-0.284905
-0.243807
-0.208191
-0.176487
-0.147431
-0.119976
-0.0932264
-0.0663866
-0.0387175
-0.009498
0.0220117
0.0566085
0.0951903
0.138809
0.188738
0.246559
0.314281
0.394492
0.490556
0.606845
0.748976
0.92393
1.13976
1.40419
1.72091
2.07936
2.41786
2.58927
-3.35547
-2.78362
-2.17264
-1.67572
-1.29254
-1.00571
-0.794134
-0.637263
-0.519323
-0.42917
-0.358972
-0.303183
-0.25784
-0.220061
-0.187705
-0.159139
-0.133083
-0.108498
-0.0845104
-0.0603538
-0.0353194
-0.0087175
0.0201613
0.052087
0.0879381
0.128761
0.175851
0.230867
0.295988
0.374158
0.469439
0.587529
0.736506
0.927865
1.17794
1.50828
1.94084
2.49099
3.15842
3.79398
-5.5167
-3.66387
-2.43115
-1.71382
-1.2416
-0.921704
-0.704782
-0.553907
-0.445449
-0.365179
-0.304166
-0.256557
-0.218394
-0.186915
-0.160126
-0.136535
-0.114989
-0.094561
-0.0744765
-0.0540573
-0.0326787
-0.00973288
0.0154062
0.0434201
0.0750897
0.111352
0.153381
0.202696
0.261343
0.332162
0.419234
0.52862
0.669605
0.856974
1.11529
1.48372
2.01562
2.80562
4.12658
6.08719
-9.19971
-4.52204
-2.30663
-1.42109
-0.958994
-0.682992
-0.512314
-0.400626
-0.322949
-0.266443
-0.223914
-0.190932
-0.164588
-0.14287
-0.124324
-0.10785
-0.0925904
-0.0778455
-0.0630254
-0.0476088
-0.0311129
-0.0130666
0.00701509
0.0296579
0.0554605
0.0851359
0.119568
0.159896
0.207639
0.264908
0.334766
0.421876
0.533789
0.683793
0.897519
1.22416
1.75383
2.73369
5.06389
9.86191
)
;

boundaryField
{
    movingWall
    {
        type            zeroGradient;
    }
    fixedWalls
    {
        type            zeroGradient;
    }
    frontAndBack
    {
        type            empty;
    }
}


// ************************************************************************* //
