/*--------------------------------*- C++ -*----------------------------------*\
| =========                 |                                                 |
| \\      /  F ield         | OpenFOAM: The Open Source CFD Toolbox           |
|  \\    /   O peration     | Version:  2206                                  |
|   \\  /    A nd           | Website:  www.openfoam.com                      |
|    \\/     M anipulation  |                                                 |
\*---------------------------------------------------------------------------*/
FoamFile
{
    version     2.0;
    format      ascii;
    arch        "LSB;label=32;scalar=64";
    class       surfaceScalarField;
    location    "0.4";
    object      phi;
}
// * * * * * * * * * * * * * * * * * * * * * * * * * * * * * * * * * * * * * //

dimensions      [0 3 -1 0 0 0 0];

oriented        oriented;

internalField   nonuniform List<scalar> 
3120
(
2.53721e-09
-2.5459e-09
4.09703e-09
-1.56011e-09
2.25366e-09
1.84339e-09
-3.55377e-09
5.80762e-09
-1.3136e-08
9.58231e-09
-2.59842e-08
1.28483e-08
-4.14591e-08
1.54748e-08
-5.88842e-08
1.7425e-08
-7.75918e-08
1.87076e-08
-9.69452e-08
1.93534e-08
-1.1635e-07
1.94049e-08
-1.35261e-07
1.89104e-08
-1.53182e-07
1.79211e-08
-1.69672e-07
1.64897e-08
-1.84341e-07
1.46695e-08
-1.96855e-07
1.25142e-08
-2.06933e-07
1.00781e-08
-2.1435e-07
7.41623e-09
-2.18934e-07
4.5848e-09
-2.20576e-07
1.64169e-09
-2.19223e-07
-1.35326e-09
-2.14885e-07
-4.33794e-09
-2.07637e-07
-7.24794e-09
-1.9762e-07
-1.00166e-08
-1.85045e-07
-1.25756e-08
-1.70189e-07
-1.48555e-08
-1.53403e-07
-1.67865e-08
-1.35102e-07
-1.83004e-08
-1.15771e-07
-1.93315e-08
-9.5952e-08
-1.98189e-08
-7.62438e-08
-1.97083e-08
-5.7289e-08
-1.89549e-08
-3.9762e-08
-1.7527e-08
-2.43506e-08
-1.54114e-08
-1.17267e-08
-1.26238e-08
-2.49639e-09
-9.23032e-09
2.8966e-09
-5.39299e-09
4.35727e-09
-1.46063e-09
2.56083e-09
1.79657e-09
2.56092e-09
1.61599e-09
-4.16224e-09
-1.17128e-09
1.22717e-09
-1.17155e-08
1.23878e-08
-3.10743e-08
2.51665e-08
-5.90465e-08
3.75545e-08
-9.46885e-08
4.84902e-08
-1.36651e-07
5.74373e-08
-1.83395e-07
6.41685e-08
-2.33319e-07
6.86324e-08
-2.84844e-07
7.08784e-08
-3.36455e-07
7.10159e-08
-3.86735e-07
6.91904e-08
-4.34383e-07
6.55689e-08
-4.78225e-07
6.03316e-08
-5.17222e-07
5.36672e-08
-5.50478e-07
4.577e-08
-5.77239e-07
3.68393e-08
-5.96902e-07
2.70791e-08
-6.09016e-07
1.6699e-08
-6.13289e-07
5.91467e-09
-6.09592e-07
-5.05094e-09
-5.97962e-07
-1.59676e-08
-5.78612e-07
-2.65976e-08
-5.51932e-07
-3.66969e-08
-5.18491e-07
-4.60167e-08
-4.7904e-07
-5.43065e-08
-4.34509e-07
-6.13179e-08
-3.86e-07
-6.68099e-08
-3.34776e-07
-7.0555e-08
-2.82248e-07
-7.23473e-08
-2.29945e-07
-7.20115e-08
-1.79485e-07
-6.94147e-08
-1.32529e-07
-6.44828e-08
-9.07169e-08
-5.72236e-08
-5.55758e-08
-4.77649e-08
-2.83825e-08
-3.64235e-08
-9.94787e-09
-2.38277e-08
-2.90273e-10
-1.11184e-08
1.85394e-09
-3.47887e-10
4.41502e-09
-1.66758e-09
-2.49476e-09
-1.21174e-08
1.16771e-08
-3.40913e-08
3.43617e-08
-6.84521e-08
5.95273e-08
-1.14786e-07
8.38886e-08
-1.71808e-07
1.05512e-07
-2.37684e-07
1.23313e-07
-3.10278e-07
1.36762e-07
-3.8732e-07
1.45674e-07
-4.66526e-07
1.50084e-07
-5.45676e-07
1.50166e-07
-6.22669e-07
1.46183e-07
-6.95557e-07
1.38457e-07
-7.62574e-07
1.27348e-07
-8.22149e-07
1.13242e-07
-8.72922e-07
9.65427e-08
-9.1375e-07
7.76672e-08
-9.43717e-07
5.70467e-08
-9.62144e-07
3.51255e-08
-9.68591e-07
1.23615e-08
-9.62869e-07
-1.0773e-08
-9.45046e-07
-3.37908e-08
-9.15452e-07
-5.61908e-08
-8.74689e-07
-7.74604e-08
-8.23625e-07
-9.70802e-08
-7.63402e-07
-1.14529e-07
-6.95425e-07
-1.29296e-07
-6.21348e-07
-1.40886e-07
-5.43062e-07
-1.48841e-07
-4.62657e-07
-1.52752e-07
-3.82388e-07
-1.52281e-07
-3.04614e-07
-1.47189e-07
-2.31727e-07
-1.3737e-07
-1.66051e-07
-1.22899e-07
-1.09711e-07
-1.04105e-07
-6.44497e-08
-8.16851e-08
-3.13837e-08
-5.68935e-08
-1.06918e-08
-3.18102e-08
-1.23841e-09
-9.80131e-09
3.1767e-09
-5.56927e-09
3.07445e-09
-2.49795e-08
3.10874e-08
-5.96886e-08
6.90709e-08
-1.09873e-07
1.09711e-07
-1.74641e-07
1.48657e-07
-2.52287e-07
1.83158e-07
-3.40537e-07
2.11564e-07
-4.36776e-07
2.33001e-07
-5.38212e-07
2.47111e-07
-6.42017e-07
2.5389e-07
-7.45421e-07
2.5357e-07
-8.45783e-07
2.46545e-07
-9.40643e-07
2.33317e-07
-1.02776e-06
2.14462e-07
-1.10513e-06
1.90611e-07
-1.17101e-06
1.62429e-07
-1.22395e-06
1.30611e-07
-1.26279e-06
9.58791e-08
-1.28664e-06
5.89782e-08
-1.29496e-06
2.06772e-08
-1.2875e-06
-1.82309e-08
-1.26436e-06
-5.69295e-08
-1.22597e-06
-9.45808e-08
-1.1731e-06
-1.3033e-07
-1.10686e-06
-1.63315e-07
-1.02872e-06
-1.92673e-07
-9.40454e-07
-2.17562e-07
-8.44166e-07
-2.37174e-07
-7.42242e-07
-2.50765e-07
-6.37314e-07
-2.5768e-07
-5.32203e-07
-2.57392e-07
-4.29848e-07
-2.49544e-07
-3.33211e-07
-2.34007e-07
-2.45154e-07
-2.10956e-07
-1.68292e-07
-1.80967e-07
-1.04801e-07
-1.45176e-07
-5.61996e-08
-1.05495e-07
-2.31016e-08
-6.4908e-08
-4.98659e-09
-2.79163e-08
-1.80988e-09
-9.46937e-09
1.25438e-08
-3.81771e-08
5.9795e-08
-8.60819e-08
1.16976e-07
-1.52398e-07
1.76027e-07
-2.35557e-07
2.31815e-07
-3.33319e-07
2.8092e-07
-4.42947e-07
3.21192e-07
-5.61374e-07
3.51428e-07
-6.85364e-07
3.711e-07
-8.11638e-07
3.80163e-07
-9.3698e-07
3.78912e-07
-1.05832e-06
3.67881e-07
-1.17278e-06
3.47776e-07
-1.27773e-06
3.1942e-07
-1.37084e-06
2.83722e-07
-1.45007e-06
2.41653e-07
-1.51369e-06
1.94234e-07
-1.56034e-06
1.42527e-07
-1.58899e-06
8.76298e-08
-1.59899e-06
3.06788e-08
-1.59007e-06
-2.71558e-08
-1.56233e-06
-8.46702e-08
-1.51628e-06
-1.40631e-07
-1.45282e-06
-1.93784e-07
-1.37328e-06
-2.42863e-07
-1.27934e-06
-2.8661e-07
-1.1731e-06
-3.23797e-07
-1.05703e-06
-3.53252e-07
-9.33888e-07
-3.73903e-07
-8.06756e-07
-3.84813e-07
-6.78909e-07
-3.85238e-07
-5.53763e-07
-3.7469e-07
-4.34756e-07
-3.53015e-07
-3.25224e-07
-3.20488e-07
-2.28248e-07
-2.77944e-07
-1.46477e-07
-2.26947e-07
-8.19478e-08
-1.70024e-07
-3.59172e-08
-1.10939e-07
-8.75635e-09
-5.50771e-08
-1.05662e-08
-1.31637e-08
2.57075e-08
-5.10315e-08
9.76627e-08
-1.12101e-07
1.78045e-07
-1.94513e-07
2.5844e-07
-2.95894e-07
3.33196e-07
-4.13377e-07
3.98404e-07
-5.43704e-07
4.5152e-07
-6.83352e-07
4.91075e-07
-8.28659e-07
5.16408e-07
-9.7595e-07
5.27454e-07
-1.12163e-06
5.2459e-07
-1.26226e-06
5.08513e-07
-1.39464e-06
4.80153e-07
-1.51583e-06
4.40609e-07
-1.62321e-06
3.91102e-07
-1.71449e-06
3.32942e-07
-1.78777e-06
2.67513e-07
-1.8415e-06
1.96255e-07
-1.87454e-06
1.20665e-07
-1.88615e-06
4.22867e-08
-1.87601e-06
-3.72882e-08
-1.84426e-06
-1.16423e-07
-1.79145e-06
-1.93444e-07
-1.71858e-06
-2.66649e-07
-1.62712e-06
-3.34324e-07
-1.51896e-06
-3.94767e-07
-1.39644e-06
-4.46319e-07
-1.26229e-06
-4.87405e-07
-1.11961e-06
-5.16579e-07
-9.71837e-07
-5.32588e-07
-8.22631e-07
-5.34443e-07
-6.75824e-07
-5.21497e-07
-5.35291e-07
-4.93548e-07
-4.04827e-07
-4.50952e-07
-2.87998e-07
-3.94773e-07
-1.8799e-07
-3.26954e-07
-1.07466e-07
-2.50548e-07
-4.84556e-08
-1.69949e-07
-1.2337e-08
-9.11957e-08
-2.29032e-08
-1.66121e-08
4.23196e-08
-6.33164e-08
1.44367e-07
-1.37283e-07
2.52011e-07
-2.35566e-07
3.56724e-07
-3.54925e-07
4.52554e-07
-4.91794e-07
5.35272e-07
-6.42341e-07
6.02067e-07
-8.02557e-07
6.51291e-07
-9.68358e-07
6.82209e-07
-1.13569e-06
6.94785e-07
-1.30061e-06
6.89512e-07
-1.45938e-06
6.67281e-07
-1.6085e-06
6.29277e-07
-1.7448e-06
5.76902e-07
-1.86541e-06
5.11718e-07
-1.96788e-06
4.35406e-07
-2.05011e-06
3.49742e-07
-2.11043e-06
2.56579e-07
-2.1476e-06
1.57839e-07
-2.16082e-06
5.55077e-08
-2.14974e-06
-4.83679e-08
-2.11448e-06
-1.51686e-07
-2.05563e-06
-2.52296e-07
-1.97427e-06
-3.48012e-07
-1.87196e-06
-4.36635e-07
-1.75074e-06
-5.15981e-07
-1.61314e-06
-5.8392e-07
-1.46212e-06
-6.3843e-07
-1.30104e-06
-6.77656e-07
-1.13364e-06
-6.99987e-07
-9.63939e-07
-7.04147e-07
-7.96144e-07
-6.89292e-07
-6.34562e-07
-6.5513e-07
-4.83459e-07
-6.02055e-07
-3.4693e-07
-5.31302e-07
-2.28765e-07
-4.4512e-07
-1.32331e-07
-3.46982e-07
-6.05049e-08
-2.41775e-07
-1.569e-08
-1.36011e-07
-3.85932e-08
-1.98438e-08
6.21634e-08
-7.5036e-08
1.99559e-07
-1.61563e-07
3.38538e-07
-2.75429e-07
4.70589e-07
-4.12499e-07
5.89625e-07
-5.68468e-07
6.91241e-07
-7.38885e-07
7.72484e-07
-9.19226e-07
8.31631e-07
-1.10497e-06
8.67952e-07
-1.29168e-06
8.815e-07
-1.47511e-06
8.72938e-07
-1.65122e-06
8.43391e-07
-1.81628e-06
7.94338e-07
-1.96689e-06
7.27515e-07
-2.10003e-06
6.44856e-07
-2.21306e-06
5.48438e-07
-2.30378e-06
4.40456e-07
-2.3704e-06
3.23197e-07
-2.41159e-06
1.99036e-07
-2.42651e-06
7.04205e-08
-2.41475e-06
-6.01241e-08
-2.37643e-06
-1.90006e-07
-2.31215e-06
-3.16574e-07
-2.22303e-06
-4.37131e-07
-2.1107e-06
-5.48962e-07
-1.97732e-06
-6.49367e-07
-1.82553e-06
-7.3571e-07
-1.65848e-06
-8.0548e-07
-1.47977e-06
-8.56368e-07
-1.29339e-06
-8.8636e-07
-1.1037e-06
-8.93839e-07
-9.1528e-07
-8.77712e-07
-7.3287e-07
-8.37539e-07
-5.6124e-07
-7.73686e-07
-4.0506e-07
-6.87482e-07
-2.68784e-07
-5.81396e-07
-1.56544e-07
-4.59222e-07
-7.20994e-08
-3.26219e-07
-1.88521e-08
-1.89258e-07
-5.74453e-08
-2.29109e-08
8.50742e-08
-8.62958e-08
2.62944e-07
-1.85076e-07
4.37319e-07
-3.14252e-07
5.99765e-07
-4.68795e-07
7.44169e-07
-6.43632e-07
8.66078e-07
-8.33663e-07
9.62515e-07
-1.03382e-06
1.03179e-06
-1.23912e-06
1.07326e-06
-1.44477e-06
1.08715e-06
-1.64619e-06
1.07435e-06
-1.83908e-06
1.03629e-06
-2.01951e-06
9.74765e-07
-2.18389e-06
8.91896e-07
-2.32905e-06
7.90014e-07
-2.45223e-06
6.71621e-07
-2.55113e-06
5.39349e-07
-2.62387e-06
3.95942e-07
-2.66907e-06
2.44237e-07
-2.68581e-06
8.71624e-08
-2.67367e-06
-7.22668e-08
-2.63272e-06
-2.30954e-07
-2.56357e-06
-3.8573e-07
-2.46733e-06
-5.33367e-07
-2.34568e-06
-6.7061e-07
-2.20084e-06
-7.94214e-07
-2.03555e-06
-9.00999e-07
-1.8531e-06
-9.87926e-07
-1.65729e-06
-1.05218e-06
-1.45235e-06
-1.09129e-06
-1.24295e-06
-1.10324e-06
-1.03406e-06
-1.08661e-06
-8.30858e-07
-1.04074e-06
-6.38663e-07
-9.65881e-07
-4.62768e-07
-8.63377e-07
-3.08342e-07
-7.35822e-07
-1.80329e-07
-5.87235e-07
-8.33877e-08
-4.23161e-07
-2.18876e-08
-2.50758e-07
-7.93329e-08
-2.58693e-08
1.10943e-07
-9.72372e-08
3.34312e-07
-2.08043e-07
5.48124e-07
-3.5232e-07
7.44043e-07
-5.24155e-07
9.16004e-07
-7.17689e-07
1.05961e-06
-9.27147e-07
1.17197e-06
-1.14689e-06
1.25153e-06
-1.37148e-06
1.29785e-06
-1.59573e-06
1.31139e-06
-1.81474e-06
1.29337e-06
-2.024e-06
1.24555e-06
-2.21936e-06
1.17012e-06
-2.39709e-06
1.06962e-06
-2.55389e-06
9.46816e-07
-2.68692e-06
8.04651e-07
-2.79379e-06
6.46219e-07
-2.87258e-06
4.74728e-07
-2.92183e-06
2.9349e-07
-2.94058e-06
1.05917e-07
-2.92837e-06
-8.448e-08
-2.88523e-06
-2.74094e-07
-2.81173e-06
-4.59229e-07
-2.70898e-06
-6.36116e-07
-2.57865e-06
-8.0094e-07
-2.42298e-06
-9.49885e-07
-2.24479e-06
-1.07919e-06
-2.04746e-06
-1.18525e-06
-1.83495e-06
-1.26469e-06
-1.61174e-06
-1.3145e-06
-1.38278e-06
-1.3322e-06
-1.15343e-06
-1.31596e-06
-9.29348e-07
-1.26482e-06
-7.16427e-07
-1.1788e-06
-5.2063e-07
-1.05917e-06
-3.47892e-07
-9.0856e-07
-2.04011e-07
-7.31116e-07
-9.45636e-08
-5.32609e-07
-2.48676e-08
-3.20454e-07
-1.04201e-07
-2.87712e-08
1.39715e-07
-1.08007e-07
4.13547e-07
-2.30709e-07
6.70826e-07
-3.89969e-07
9.03303e-07
-5.78987e-07
1.10502e-06
-7.91103e-07
1.27173e-06
-1.01985e-06
1.40072e-06
-1.25901e-06
1.49069e-06
-1.50265e-06
1.54149e-06
-1.7452e-06
1.55395e-06
-1.98148e-06
1.52965e-06
-2.20672e-06
1.47079e-06
-2.41662e-06
1.38002e-06
-2.60732e-06
1.26032e-06
-2.77543e-06
1.11493e-06
-2.91805e-06
9.47268e-07
-3.03273e-06
7.60901e-07
-3.11751e-06
5.59507e-07
-3.17089e-06
3.46876e-07
-3.19188e-06
1.269e-07
-3.17994e-06
-9.6417e-08
-3.13507e-06
-3.18962e-07
-3.05778e-06
-5.36514e-07
-2.94915e-06
-7.44755e-07
-2.81079e-06
-9.393e-07
-2.64493e-06
-1.11574e-06
-2.45442e-06
-1.2697e-06
-2.24272e-06
-1.39695e-06
-2.01391e-06
-1.4935e-06
-1.77266e-06
-1.55575e-06
-1.52423e-06
-1.58063e-06
-1.27436e-06
-1.56583e-06
-1.02923e-06
-1.50995e-06
-7.95314e-07
-1.41272e-06
-5.79305e-07
-1.27518e-06
-3.87954e-07
-1.09991e-06
-2.27955e-07
-8.91115e-07
-1.05833e-07
-6.5473e-07
-2.78615e-08
-3.98426e-07
-1.32062e-07
-3.16628e-08
1.71377e-07
-1.18743e-07
5.00628e-07
-2.53318e-07
8.05401e-07
-4.27536e-07
1.07752e-06
-6.337e-07
1.31119e-06
-8.64339e-07
1.50237e-06
-1.11227e-06
1.64865e-06
-1.37067e-06
1.74909e-06
-1.63313e-06
1.80394e-06
-1.89367e-06
1.81449e-06
-2.14684e-06
1.78282e-06
-2.38766e-06
1.71161e-06
-2.61167e-06
1.60403e-06
-2.81492e-06
1.46357e-06
-2.99398e-06
1.29399e-06
-3.1459e-06
1.09918e-06
-3.26821e-06
8.83212e-07
-3.35893e-06
6.50226e-07
-3.41654e-06
4.04483e-07
-3.43998e-06
1.50348e-07
-3.4287e-06
-1.07698e-07
-3.38262e-06
-3.65049e-07
-3.30216e-06
-6.16968e-07
-3.18832e-06
-8.58593e-07
-3.04266e-06
-1.08496e-06
-2.86735e-06
-1.29105e-06
-2.6652e-06
-1.47185e-06
-2.4397e-06
-1.62245e-06
-2.19502e-06
-1.73818e-06
-1.93602e-06
-1.81474e-06
-1.66823e-06
-1.84842e-06
-1.39779e-06
-1.83628e-06
-1.13137e-06
-1.77636e-06
-8.76116e-07
-1.66797e-06
-6.39472e-07
-1.51183e-06
-4.2906e-07
-1.31032e-06
-2.52529e-07
-1.06765e-06
-1.174e-07
-7.89859e-07
-3.09345e-08
-4.84891e-07
-1.62996e-07
-3.45842e-08
2.05961e-07
-1.29572e-07
5.95616e-07
-2.76093e-07
9.51922e-07
-4.65335e-07
1.26676e-06
-6.8868e-07
1.53453e-06
-9.37816e-07
1.7515e-06
-1.20483e-06
1.91566e-06
-1.48227e-06
2.02653e-06
-1.76324e-06
2.08491e-06
-2.0414e-06
2.09265e-06
-2.31099e-06
2.05241e-06
-2.56686e-06
1.96748e-06
-2.80445e-06
1.84161e-06
-3.01974e-06
1.67886e-06
-3.20927e-06
1.48352e-06
-3.37011e-06
1.26002e-06
-3.4998e-06
1.0129e-06
-3.59636e-06
7.46781e-07
-3.65825e-06
4.66376e-07
-3.6844e-06
1.765e-07
-3.67419e-06
-1.17911e-07
-3.62745e-06
-4.11784e-07
-3.54454e-06
-6.99885e-07
-3.42631e-06
-9.76823e-07
-3.27421e-06
-1.23706e-06
-3.09031e-06
-1.47495e-06
-2.87734e-06
-1.68482e-06
-2.63877e-06
-1.86102e-06
-2.37882e-06
-1.99813e-06
-2.10248e-06
-2.09109e-06
-1.81553e-06
-2.13538e-06
-1.52449e-06
-2.12732e-06
-1.23657e-06
-2.06428e-06
-9.59584e-07
-1.94496e-06
-7.01784e-07
-1.76963e-06
-4.7173e-07
-1.54038e-06
-2.78091e-07
-1.26129e-06
-1.29456e-07
-9.38494e-07
-3.4147e-08
-5.80201e-07
-1.97143e-07
-3.75709e-08
2.43532e-07
-1.40606e-07
6.98652e-07
-2.99241e-07
1.11056e-06
-5.03654e-07
1.47118e-06
-7.44266e-07
1.77514e-06
-1.01189e-06
2.01912e-06
-1.29785e-06
2.20162e-06
-1.59407e-06
2.32276e-06
-1.89315e-06
2.38399e-06
-2.18838e-06
2.38788e-06
-2.47376e-06
2.33779e-06
-2.74399e-06
2.23771e-06
-2.99442e-06
2.09204e-06
-3.22104e-06
1.90548e-06
-3.42041e-06
1.6829e-06
-3.58964e-06
1.42926e-06
-3.72633e-06
1.14959e-06
-3.82852e-06
8.48973e-07
-3.8947e-06
5.3256e-07
-3.92378e-06
2.05579e-07
-3.91508e-06
-1.26617e-07
-3.86834e-06
-4.58522e-07
-3.78378e-06
-7.84442e-07
-3.66212e-06
-1.09848e-06
-3.50464e-06
-1.39454e-06
-3.31324e-06
-1.66636e-06
-3.09052e-06
-1.90754e-06
-2.83986e-06
-2.11169e-06
-2.56544e-06
-2.27255e-06
-2.27237e-06
-2.38416e-06
-1.96662e-06
-2.44113e-06
-1.65509e-06
-2.43885e-06
-1.34551e-06
-2.37386e-06
-1.04639e-06
-2.24408e-06
-7.66849e-07
-2.04917e-06
-5.16452e-07
-1.79077e-06
-3.04979e-07
-1.47276e-06
-1.42186e-07
-1.10129e-06
-3.75554e-08
-6.84831e-07
-2.34699e-07
-4.06547e-08
2.84187e-07
-1.51949e-07
8.09946e-07
-3.22946e-07
1.28155e-06
-5.42748e-07
1.69098e-06
-8.00752e-07
2.03315e-06
-1.08684e-06
2.30522e-06
-1.39156e-06
2.50633e-06
-1.70617e-06
2.63737e-06
-2.02279e-06
2.70061e-06
-2.33435e-06
2.69944e-06
-2.63464e-06
2.63809e-06
-2.91826e-06
2.52132e-06
-3.18054e-06
2.35432e-06
-3.41751e-06
2.14245e-06
-3.62583e-06
1.89122e-06
-3.8027e-06
1.60612e-06
-3.94581e-06
1.2927e-06
-4.0533e-06
9.56458e-07
-4.12368e-06
6.02947e-07
-4.15587e-06
2.37769e-07
-4.14913e-06
-1.33356e-07
-4.10312e-06
-5.04541e-07
-4.01788e-06
-8.6968e-07
-3.89395e-06
-1.22241e-06
-3.73238e-06
-1.55611e-06
-3.53485e-06
-1.86388e-06
-3.30375e-06
-2.13863e-06
-3.04228e-06
-2.37316e-06
-2.75455e-06
-2.56028e-06
-2.44564e-06
-2.69306e-06
-2.12172e-06
-2.76505e-06
-1.78999e-06
-2.77058e-06
-1.45871e-06
-2.70514e-06
-1.1371e-06
-2.56568e-06
-8.3521e-07
-2.35106e-06
-5.6368e-07
-2.0623e-06
-3.33513e-07
-1.70293e-06
-1.55763e-07
-1.27904e-06
-4.12131e-08
-7.99382e-07
-2.75912e-07
-4.38664e-08
3.28053e-07
-1.63699e-07
9.29779e-07
-3.47387e-07
1.46524e-06
-5.82855e-07
1.92645e-06
-8.58392e-07
2.30868e-06
-1.1629e-06
2.60972e-06
-1.48606e-06
2.8295e-06
-1.81851e-06
2.96982e-06
-2.15185e-06
3.03395e-06
-2.47872e-06
3.02631e-06
-2.79273e-06
2.95209e-06
-3.08842e-06
2.81702e-06
-3.3612e-06
2.62709e-06
-3.6072e-06
2.38846e-06
-3.82325e-06
2.10726e-06
-4.0067e-06
1.78958e-06
-4.15542e-06
1.44142e-06
-4.26765e-06
1.0687e-06
-4.34202e-06
6.77312e-07
-4.37744e-06
2.73186e-07
-4.37313e-06
-1.37663e-07
-4.32863e-06
-5.49036e-07
-4.24383e-06
-9.54481e-07
-4.11901e-06
-1.34723e-06
-3.95496e-06
-1.72017e-06
-3.75302e-06
-2.06581e-06
-3.51531e-06
-2.37635e-06
-3.24474e-06
-2.64373e-06
-2.94523e-06
-2.85979e-06
-2.6218e-06
-3.0165e-06
-2.28067e-06
-3.10618e-06
-1.92932e-06
-3.12193e-06
-1.5765e-06
-3.05795e-06
-1.23218e-06
-2.91001e-06
-9.0734e-07
-2.6759e-06
-6.13829e-07
-2.35582e-06
-3.63996e-07
-1.95276e-06
-1.70355e-07
-1.47268e-06
-4.51724e-08
-9.24564e-07
-3.21084e-07
-4.72375e-08
3.75291e-07
-1.75959e-07
1.0585e-06
-3.7274e-07
1.66202e-06
-6.24202e-07
2.17791e-06
-9.17412e-07
2.60189e-06
-1.24019e-06
2.9325e-06
-1.58136e-06
3.17066e-06
-1.93085e-06
3.3193e-06
-2.2798e-06
3.38291e-06
-2.62058e-06
3.36709e-06
-2.94668e-06
3.2782e-06
-3.2527e-06
3.12304e-06
-3.53417e-06
2.90856e-06
-3.78744e-06
2.64173e-06
-4.00957e-06
2.32939e-06
-4.19818e-06
1.97819e-06
-4.35136e-06
1.5946e-06
-4.46756e-06
1.18489e-06
-4.54549e-06
7.55251e-07
-4.58416e-06
3.11847e-07
-4.58273e-06
-1.39087e-07
-4.54064e-06
-5.91125e-07
-4.45757e-06
-1.03756e-06
-4.3335e-06
-1.47129e-06
-4.16889e-06
-1.88479e-06
-3.96469e-06
-2.27001e-06
-3.7226e-06
-2.61845e-06
-3.44515e-06
-2.92118e-06
-3.13594e-06
-3.169e-06
-2.7998e-06
-3.35264e-06
-2.44289e-06
-3.46309e-06
-2.07291e-06
-3.49192e-06
-1.69902e-06
-3.43183e-06
-1.33192e-06
-3.27711e-06
-9.83636e-07
-3.02418e-06
-6.67279e-07
-2.67217e-06
-3.96719e-07
-2.22332e-06
-1.86128e-07
-1.68327e-06
-4.94861e-08
-1.06121e-06
-3.7057e-07
-5.08037e-08
4.26095e-07
-1.88841e-07
1.19654e-06
-3.99201e-07
1.87238e-06
-6.67029e-07
2.44573e-06
-9.78029e-07
2.91289e-06
-1.31885e-06
3.27332e-06
-1.67734e-06
3.52916e-06
-2.04277e-06
3.68473e-06
-2.40582e-06
3.74596e-06
-2.75863e-06
3.7199e-06
-3.0947e-06
3.61427e-06
-3.40874e-06
3.43708e-06
-3.69653e-06
3.19635e-06
-3.95477e-06
2.89996e-06
-4.18084e-06
2.55547e-06
-4.37273e-06
2.17009e-06
-4.52884e-06
1.7507e-06
-4.64788e-06
1.30392e-06
-4.72875e-06
8.36125e-07
-4.77053e-06
3.5363e-07
-4.77241e-06
-1.3721e-07
-4.73368e-06
-6.29857e-07
-4.65379e-06
-1.11745e-06
-4.53241e-06
-1.59267e-06
-4.36956e-06
-2.04764e-06
-4.16572e-06
-2.47385e-06
-3.92204e-06
-2.86212e-06
-3.64055e-06
-3.20267e-06
-3.32437e-06
-3.48518e-06
-2.97796e-06
-3.69906e-06
-2.60732e-06
-3.83372e-06
-2.22019e-06
-3.87905e-06
-1.82613e-06
-3.8259e-06
-1.43651e-06
-3.66673e-06
-1.06442e-06
-3.39628e-06
-7.24381e-07
-3.01221e-06
-4.31969e-07
-2.51573e-06
-2.03252e-07
-1.91199e-06
-5.42093e-08
-1.21025e-06
-4.2478e-07
-5.46086e-08
4.80703e-07
-2.02482e-07
1.34441e-06
-4.27e-07
2.0969e-06
-7.1161e-07
2.73034e-06
-1.04047e-06
3.24176e-06
-1.39892e-06
3.63177e-06
-1.7738e-06
3.90404e-06
-2.15366e-06
4.06458e-06
-2.52878e-06
4.12108e-06
-2.89117e-06
4.08229e-06
-3.23442e-06
3.95752e-06
-3.55352e-06
3.75617e-06
-3.84462e-06
3.48746e-06
-4.10486e-06
3.16021e-06
-4.33214e-06
2.78274e-06
-4.52488e-06
2.36283e-06
-4.68192e-06
1.90774e-06
-4.80229e-06
1.42429e-06
-4.88518e-06
9.1901e-07
-4.92978e-06
3.98235e-07
-4.9353e-06
-1.31686e-07
-4.90093e-06
-6.64228e-07
-4.82587e-06
-1.19251e-06
-4.70941e-06
-1.70912e-06
-4.55108e-06
-2.20598e-06
-4.35075e-06
-2.67417e-06
-4.10893e-06
-3.10394e-06
-3.82695e-06
-3.48465e-06
-3.50729e-06
-3.80484e-06
-3.15385e-06
-4.05249e-06
-2.77228e-06
-4.2153e-06
-2.37019e-06
-4.28113e-06
-1.95739e-06
-4.2387e-06
-1.54591e-06
-4.07822e-06
-1.14991e-06
-3.79227e-06
-7.85461e-07
-3.37665e-06
-4.70036e-07
-2.83116e-06
-2.21908e-07
-2.16011e-06
-5.94031e-08
-1.37275e-06
-4.84183e-07
-5.87085e-08
5.39412e-07
-2.17057e-07
1.50276e-06
-4.56424e-07
2.33627e-06
-7.58282e-07
3.0322e-06
-1.10501e-06
3.58848e-06
-1.48048e-06
4.00724e-06
-1.87042e-06
4.29399e-06
-2.26269e-06
4.45684e-06
-2.64723e-06
4.50562e-06
-3.01603e-06
4.45109e-06
-3.36291e-06
4.3044e-06
-3.68328e-06
4.07654e-06
-3.97387e-06
3.77804e-06
-4.23242e-06
3.41876e-06
-4.45745e-06
3.00777e-06
-4.64799e-06
2.55337e-06
-4.8034e-06
2.06315e-06
-4.92317e-06
1.54407e-06
-5.00681e-06
1.00264e-06
-5.0537e-06
4.45131e-07
-5.06312e-06
-1.22271e-07
-5.03414e-06
-6.93209e-07
-4.96571e-06
-1.26094e-06
-4.85671e-06
-1.81812e-06
-4.70609e-06
-2.3566e-06
-4.51304e-06
-2.86722e-06
-4.27724e-06
-3.33974e-06
-3.99917e-06
-3.76272e-06
-3.68044e-06
-4.12358e-06
-3.32416e-06
-4.40877e-06
-2.93537e-06
-4.60409e-06
-2.52137e-06
-4.69513e-06
-2.09202e-06
-4.66805e-06
-1.65989e-06
-4.51034e-06
-1.24026e-06
-4.2119e-06
-8.50827e-07
-3.76609e-06
-5.1123e-07
-3.17075e-06
-2.42299e-07
-2.42905e-06
-6.51372e-08
-1.54991e-06
-5.4932e-07
-6.31788e-08
6.0259e-07
-2.32797e-07
1.67238e-06
-4.87852e-07
2.59132e-06
-8.07475e-07
3.35183e-06
-1.17197e-06
3.95298e-06
-1.56355e-06
4.39881e-06
-1.96677e-06
4.69721e-06
-2.36878e-06
4.85885e-06
-2.75929e-06
4.89613e-06
-3.13044e-06
4.82224e-06
-3.47646e-06
4.65043e-06
-3.79341e-06
4.39349e-06
-4.07875e-06
4.06338e-06
-4.33103e-06
3.67104e-06
-4.54956e-06
3.22631e-06
-4.73414e-06
2.73795e-06
-4.88477e-06
2.21378e-06
-5.00148e-06
1.66078e-06
-5.0842e-06
1.08536e-06
-5.13258e-06
4.93516e-07
-5.14599e-06
-1.08866e-07
-5.12343e-06
-7.15773e-07
-5.06358e-06
-1.32079e-06
-4.96488e-06
-1.91682e-06
-4.82565e-06
-2.49583e-06
-4.64426e-06
-3.04861e-06
-4.41945e-06
-3.56455e-06
-4.15063e-06
-4.03154e-06
-3.83828e-06
-4.43592e-06
-3.48448e-06
-4.76258e-06
-3.09334e-06
-4.99522e-06
-2.67155e-06
-5.11692e-06
-2.22878e-06
-5.11081e-06
-1.778e-06
-4.96113e-06
-1.33551e-06
-4.65439e-06
-9.2078e-07
-4.18081e-06
-5.55894e-07
-3.53564e-06
-2.64661e-07
-2.72028e-06
-7.14958e-08
-1.74308e-06
-6.20816e-07
-6.8123e-08
6.70714e-07
-2.50014e-07
1.85427e-06
-5.21788e-07
2.8631e-06
-8.59758e-07
3.6898e-06
-1.24178e-06
4.33501e-06
-1.64818e-06
4.80521e-06
-2.06225e-06
5.11129e-06
-2.47051e-06
5.26711e-06
-2.86259e-06
5.28821e-06
-3.23095e-06
5.1906e-06
-3.57053e-06
4.99e-06
-3.87824e-06
4.70119e-06
-4.15253e-06
4.33768e-06
-4.39299e-06
3.9115e-06
-4.59991e-06
3.43322e-06
-4.77397e-06
2.91201e-06
-4.91599e-06
2.35579e-06
-5.02664e-06
1.77143e-06
-5.10634e-06
1.16506e-06
-5.15509e-06
5.42269e-07
-5.1724e-06
-9.15586e-08
-5.15723e-06
-7.30945e-07
-5.10802e-06
-1.37e-06
-5.02273e-06
-2.0021e-06
-4.89901e-06
-2.61955e-06
-4.73434e-06
-3.21328e-06
-4.52633e-06
-3.77256e-06
-4.27312e-06
-4.28475e-06
-3.97383e-06
-4.73521e-06
-3.62913e-06
-5.10727e-06
-3.24187e-06
-5.38248e-06
-2.81775e-06
-5.54104e-06
-2.36591e-06
-5.56266e-06
-1.89943e-06
-5.42761e-06
-1.43556e-06
-5.11826e-06
-9.95623e-07
-4.62075e-06
-6.04426e-07
-3.92684e-06
-2.89282e-07
-3.03542e-06
-7.85839e-08
-1.95378e-06
-6.99399e-07
-7.36844e-08
7.44398e-07
-2.69136e-07
2.04972e-06
-5.58911e-07
3.15287e-06
-9.15873e-07
4.04676e-06
-1.31497e-06
4.7341e-06
-1.73437e-06
5.22461e-06
-2.15607e-06
5.53298e-06
-2.56604e-06
5.67709e-06
-2.95405e-06
5.67622e-06
-3.31322e-06
5.54977e-06
-3.63945e-06
5.31623e-06
-3.93085e-06
4.99259e-06
-4.18714e-06
4.59397e-06
-4.40916e-06
4.13352e-06
-4.59839e-06
3.62245e-06
-4.75657e-06
3.07019e-06
-4.88543e-06
2.48465e-06
-4.98642e-06
1.87243e-06
-5.06054e-06
1.23918e-06
-5.10819e-06
5.89919e-07
-5.12908e-06
-7.06689e-08
-5.12218e-06
-7.37846e-07
-5.08571e-06
-1.40647e-06
-5.01718e-06
-2.07063e-06
-4.91351e-06
-2.72322e-06
-4.77122e-06
-3.35558e-06
-4.58668e-06
-3.9571e-06
-4.35656e-06
-4.51487e-06
-4.07832e-06
-5.01346e-06
-3.75086e-06
-5.43473e-06
-3.37534e-06
-5.758e-06
-2.95598e-06
-5.96041e-06
-2.50092e-06
-6.01771e-06
-2.023e-06
-5.90553e-06
-1.54019e-06
-5.60107e-06
-1.07567e-06
-5.08528e-06
-6.57308e-07
-4.34519e-06
-3.16527e-07
-3.3762e-06
-8.65379e-08
-2.18377e-06
-7.85937e-07
-8.00632e-08
8.24461e-07
-2.9075e-07
2.26041e-06
-6.0013e-07
3.46225e-06
-9.76788e-07
4.42341e-06
-1.39218e-06
5.1495e-06
-1.82204e-06
5.65447e-06
-2.24705e-06
5.95799e-06
-2.65285e-06
6.08289e-06
-3.02968e-06
6.05305e-06
-3.37168e-06
5.89178e-06
-3.67616e-06
5.62071e-06
-3.94277e-06
5.2592e-06
-4.17282e-06
4.82402e-06
-4.36866e-06
4.32935e-06
-4.53314e-06
3.78693e-06
-4.66924e-06
3.2063e-06
-4.77972e-06
2.59513e-06
-4.86689e-06
1.95959e-06
-4.93239e-06
1.30468e-06
-4.97709e-06
6.34622e-07
-5.00097e-06
-4.67848e-08
-5.00307e-06
-7.35755e-07
-4.98141e-06
-1.42813e-06
-4.93311e-06
-2.11893e-06
-4.85437e-06
-2.80196e-06
-4.7407e-06
-3.46925e-06
-4.58714e-06
-4.11065e-06
-4.38871e-06
-4.71331e-06
-4.14091e-06
-5.26125e-06
-3.84052e-06
-5.73512e-06
-3.48646e-06
-6.11206e-06
-3.08091e-06
-6.36596e-06
-2.63041e-06
-6.46821e-06
-2.14698e-06
-6.38896e-06
-1.64893e-06
-6.09912e-06
-1.16124e-06
-5.57297e-06
-7.15139e-07
-4.7913e-06
-3.46874e-07
-3.74447e-06
-9.55402e-08
-2.4351e-06
-8.81478e-07
-8.75408e-08
9.12002e-07
-3.1566e-07
2.48853e-06
-6.46658e-07
3.79325e-06
-1.04373e-06
4.82049e-06
-1.47414e-06
5.5799e-06
-1.9109e-06
6.09123e-06
-2.33346e-06
6.38054e-06
-2.72748e-06
6.47691e-06
-3.08416e-06
6.40973e-06
-3.39921e-06
6.20682e-06
-3.6718e-06
5.89331e-06
-3.90359e-06
5.49099e-06
-4.09781e-06
5.01824e-06
-4.25858e-06
4.49012e-06
-4.39033e-06
3.91868e-06
-4.49739e-06
3.31335e-06
-4.58363e-06
2.68137e-06
-4.65228e-06
2.02824e-06
-4.70568e-06
1.35809e-06
-4.74524e-06
6.74174e-07
-4.77123e-06
-2.07881e-08
-4.78282e-06
-7.24165e-07
-4.77795e-06
-1.433e-06
-4.75336e-06
-2.14352e-06
-4.70462e-06
-2.8507e-06
-4.62623e-06
-3.54764e-06
-4.51189e-06
-4.225e-06
-4.35481e-06
-4.87039e-06
-4.14831e-06
-5.46775e-06
-3.88662e-06
-5.99682e-06
-3.56589e-06
-6.43278e-06
-3.18554e-06
-6.74631e-06
-2.74972e-06
-6.90403e-06
-2.26886e-06
-6.86982e-06
-1.76102e-06
-6.60696e-06
-1.25268e-06
-6.08131e-06
-7.78688e-07
-5.26529e-06
-3.80964e-07
-4.14219e-06
-1.05842e-07
-2.71022e-06
-9.87319e-07
-9.65168e-08
1.00852e-06
-3.44977e-07
2.73699e-06
-7.00102e-07
4.14837e-06
-1.11823e-06
5.23862e-06
-1.56156e-06
6.02323e-06
-2.00018e-06
6.52986e-06
-2.41257e-06
6.79294e-06
-2.785e-06
6.84933e-06
-3.1103e-06
6.73503e-06
-3.38645e-06
6.48297e-06
-3.61512e-06
6.12198e-06
-3.80043e-06
5.6763e-06
-3.9479e-06
5.16571e-06
-4.06366e-06
4.60589e-06
-4.15388e-06
4.0089e-06
-4.2243e-06
3.38377e-06
-4.27996e-06
2.73703e-06
-4.32499e-06
2.07327e-06
-4.36249e-06
1.39559e-06
-4.39437e-06
7.06055e-07
-4.4213e-06
6.14091e-09
-4.44262e-06
-7.02852e-07
-4.45625e-06
-1.41936e-06
-4.45871e-06
-2.14107e-06
-4.44501e-06
-2.8644e-06
-4.4088e-06
-3.58385e-06
-4.34241e-06
-4.29138e-06
-4.23726e-06
-4.97554e-06
-4.08429e-06
-5.62072e-06
-3.87481e-06
-6.2063e-06
-3.60163e-06
-6.70596e-06
-3.2606e-06
-7.08734e-06
-2.85248e-06
-7.31214e-06
-2.38506e-06
-7.33724e-06
-1.87518e-06
-7.11685e-06
-1.35028e-06
-6.6062e-06
-8.48944e-07
-5.76663e-06
-4.19672e-07
-4.57146e-06
-1.17797e-07
-3.0121e-06
-1.10512e-06
-1.07566e-07
1.11608e-06
-3.80235e-07
3.00966e-06
-7.62561e-07
4.5307e-06
-1.20206e-06
5.67812e-06
-1.65492e-06
6.47609e-06
-2.08824e-06
6.96317e-06
-2.4801e-06
7.1848e-06
-2.81826e-06
7.1875e-06
-3.0982e-06
7.01497e-06
-3.32105e-06
6.70583e-06
-3.4917e-06
6.29263e-06
-3.61725e-06
5.80185e-06
-3.70585e-06
5.25431e-06
-3.76583e-06
4.66588e-06
-3.80515e-06
4.04822e-06
-3.83097e-06
3.40959e-06
-3.84945e-06
2.75552e-06
-3.86562e-06
2.08944e-06
-3.88322e-06
1.41319e-06
-3.9047e-06
7.27533e-07
-3.9311e-06
3.25488e-08
-3.96203e-06
-6.71924e-07
-3.99553e-06
-1.38587e-06
-4.02799e-06
-2.10861e-06
-4.05411e-06
-2.83827e-06
-4.06682e-06
-3.57115e-06
-4.05732e-06
-4.30088e-06
-4.01526e-06
-5.0176e-06
-3.92918e-06
-5.7068e-06
-3.78721e-06
-6.34827e-06
-3.57827e-06
-6.9149e-06
-3.29377e-06
-7.37184e-06
-2.92988e-06
-7.67603e-06
-2.49032e-06
-7.77681e-06
-1.9893e-06
-7.61786e-06
-1.45424e-06
-7.14126e-06
-9.27181e-07
-6.29369e-06
-4.64219e-07
-5.03443e-06
-1.3192e-07
-3.3444e-06
-1.23704e-06
-1.2153e-07
1.23761e-06
-4.23563e-07
3.31169e-06
-8.36732e-07
4.94387e-06
-1.29717e-06
6.13855e-06
-1.75403e-06
6.93295e-06
-2.17176e-06
7.3809e-06
-2.52912e-06
7.54215e-06
-2.81674e-06
7.47512e-06
-3.03409e-06
7.23232e-06
-3.18654e-06
6.85827e-06
-3.28299e-06
6.38908e-06
-3.33406e-06
5.85292e-06
-3.35077e-06
5.27102e-06
-3.34373e-06
4.65884e-06
-3.32264e-06
4.02712e-06
-3.29596e-06
3.38291e-06
-3.27084e-06
2.7304e-06
-3.25301e-06
2.07161e-06
-3.2468e-06
1.40698e-06
-3.25509e-06
7.35824e-07
-3.27931e-06
5.67754e-08
-3.31938e-06
-6.31859e-07
-3.37356e-06
-1.33169e-06
-3.43837e-06
-2.0438e-06
-3.50841e-06
-2.76823e-06
-3.57622e-06
-3.50333e-06
-3.63217e-06
-4.24494e-06
-3.66445e-06
-4.98532e-06
-3.65931e-06
-5.71194e-06
-3.60165e-06
-6.40593e-06
-3.47607e-06
-7.04048e-06
-3.26866e-06
-7.57924e-06
-2.96966e-06
-7.97504e-06
-2.57687e-06
-8.16959e-06
-2.09992e-06
-8.09482e-06
-1.56438e-06
-7.6768e-06
-1.015e-06
-6.84306e-06
-5.16322e-07
-5.53311e-06
-1.48973e-07
-3.71175e-06
-1.38601e-06
-1.39668e-07
1.37728e-06
-4.77929e-07
3.64995e-06
-9.25985e-07
5.39192e-06
-1.40528e-06
6.61785e-06
-1.8572e-06
7.38488e-06
-2.2445e-06
7.7682e-06
-2.54853e-06
7.84619e-06
-2.76484e-06
7.69143e-06
-2.89861e-06
7.36608e-06
-2.96075e-06
6.92042e-06
-2.96501e-06
6.39334e-06
-2.92589e-06
5.81379e-06
-2.85738e-06
5.20252e-06
-2.77228e-06
4.57374e-06
-2.68177e-06
3.93661e-06
-2.59537e-06
3.29651e-06
-2.52089e-06
2.65592e-06
-2.46454e-06
2.01526e-06
-2.43102e-06
1.37345e-06
-2.42353e-06
7.28333e-07
-2.44382e-06
7.7069e-08
-2.49215e-06
-5.8353e-07
-2.56716e-06
-1.25668e-06
-2.66572e-06
-1.94524e-06
-2.78267e-06
-2.65128e-06
-2.91059e-06
-3.37541e-06
-3.0395e-06
-4.11603e-06
-3.15664e-06
-4.86819e-06
-3.24641e-06
-5.62216e-06
-3.29069e-06
-6.36164e-06
-3.26963e-06
-7.06155e-06
-3.1633e-06
-7.68557e-06
-2.95454e-06
-8.1838e-06
-2.63309e-06
-8.49104e-06
-2.20115e-06
-8.52676e-06
-1.67969e-06
-8.19826e-06
-1.11435e-06
-7.40841e-06
-5.78418e-07
-6.06904e-06
-1.70123e-07
-4.12004e-06
-1.55613e-06
-1.63922e-07
1.5412e-06
-5.47485e-07
4.03351e-06
-1.0343e-06
5.87874e-06
-1.52715e-06
7.11069e-06
-1.95962e-06
7.81734e-06
-2.29509e-06