/*--------------------------------*- C++ -*----------------------------------*\
| =========                 |                                                 |
| \\      /  F ield         | OpenFOAM: The Open Source CFD Toolbox           |
|  \\    /   O peration     | Version:  2206                                  |
|   \\  /    A nd           | Website:  www.openfoam.com                      |
|    \\/     M anipulation  |                                                 |
\*---------------------------------------------------------------------------*/
FoamFile
{
    version     2.0;
    format      ascii;
    arch        "LSB;label=32;scalar=64";
    class       volScalarField;
    location    "0.4";
    object      T;
}
// * * * * * * * * * * * * * * * * * * * * * * * * * * * * * * * * * * * * * //

dimensions      [0 0 0 1 0 0 0];

internalField   nonuniform List<scalar> 
1600
(
300.002
300.007
300.012
300.018
300.025
300.033
300.042
300.053
300.065
300.08
300.096
300.114
300.134
300.156
300.178
300.202
300.226
300.249
300.272
300.293
300.313
300.329
300.343
300.353
300.36
300.362
300.36
300.353
300.342
300.327
300.308
300.285
300.259
300.23
300.198
300.164
300.129
300.093
300.056
300.019
300.007
300.022
300.037
300.055
300.076
300.099
300.128
300.161
300.199
300.243
300.293
300.349
300.41
300.476
300.546
300.618
300.69
300.762
300.832
300.897
300.956
301.007
301.049
301.08
301.099
301.106
301.099
301.079
301.046
300.999
300.941
300.87
300.79
300.701
300.604
300.502
300.394
300.284
300.171
300.057
300.012
300.037
300.064
300.094
300.129
300.17
300.219
300.276
300.342
300.418
300.505
300.602
300.708
300.822
300.942
301.066
301.192
301.317
301.437
301.55
301.652
301.74
301.812
301.866
301.899
301.91
301.898
301.862
301.804
301.724
301.622
301.5
301.361
301.207
301.04
300.863
300.678
300.488
300.294
300.098
300.018
300.054
300.093
300.137
300.188
300.248
300.319
300.403
300.5
300.613
300.74
300.883
301.039
301.207
301.385
301.569
301.755
301.939
302.116
302.282
302.432
302.562
302.668
302.747
302.795
302.811
302.793
302.74
302.654
302.534
302.383
302.204
301.999
301.771
301.526
301.265
300.994
300.714
300.43
300.144
300.024
300.073
300.125
300.185
300.254
300.336
300.432
300.546
300.679
300.833
301.007
301.202
301.417
301.648
301.892
302.144
302.399
302.652
302.895
303.123
303.329
303.507
303.652
303.759
303.825
303.846
303.821
303.748
303.629
303.464
303.257
303.01
302.728
302.417
302.08
301.724
301.353
300.972
300.586
300.196
300.031
300.094
300.162
300.239
300.329
300.435
300.561
300.709
300.883
301.085
301.314
301.571
301.853
302.157
302.478
302.81
303.146
303.478
303.799
304.099
304.37
304.605
304.796
304.937
305.023
305.05
305.016
304.92
304.763
304.545
304.272
303.946
303.575
303.165
302.722
302.255
301.769
301.27
300.765
300.255
300.039
300.118
300.204
300.301
300.414
300.548
300.708
300.897
301.119
301.376
301.669
301.997
302.358
302.747
303.158
303.583
304.014
304.44
304.85
305.235
305.582
305.883
306.128
306.308
306.419
306.454
306.411
306.287
306.085
305.806
305.455
305.038
304.562
304.036
303.47
302.872
302.252
301.616
300.972
300.324
300.047
300.145
300.251
300.371
300.511
300.678
300.876
301.112
301.389
301.711
302.078
302.489
302.942
303.43
303.946
304.48
305.02
305.555
306.07
306.552
306.988
307.365
307.673
307.9
308.039
308.083
308.029
307.875
307.621
307.271
306.83
306.306
305.709
305.049
304.339
303.589
302.812
302.018
301.213
300.405
300.058
300.176
300.305
300.451
300.622
300.826
301.069
301.359
301.7
302.096
302.548
303.056
303.614
304.217
304.854
305.512
306.179
306.838
307.473
308.067
308.605
309.07
309.449
309.729
309.901
309.956
309.89
309.701
309.388
308.957
308.414
307.768
307.031
306.217
305.34
304.416
303.459
302.48
301.491
300.497
300.069
300.211
300.366
300.542
300.748
300.994
301.288
301.64
302.054
302.535
303.086
303.703
304.383
305.116
305.89
306.691
307.5
308.3
309.071
309.791
310.442
311.006
311.465
311.805
312.014
312.082
312.003
311.775
311.398
310.876
310.218
309.434
308.539
307.55
306.484
305.361
304.197
303.009
301.808
300.603
300.082
300.251
300.434
300.644
300.89
301.183
301.536
301.957
302.455
303.033
303.695
304.437
305.253
306.133
307.062
308.021
308.99
309.947
310.867
311.727
312.503
313.175
313.723
314.128
314.378
314.46
314.368
314.098
313.649
313.028
312.243
311.307
310.237
309.052
307.775
306.427
305.031
303.605
302.166
300.722
300.097
300.295
300.511
300.758
301.048
301.396
301.814
302.314
302.905
303.593
304.379
305.26
306.229
307.272
308.37
309.504
310.648
311.774
312.857
313.867
314.779
315.567
316.209
316.686
316.979
317.078
316.971
316.657
316.133
315.405
314.483
313.382
312.121
310.722
309.211
307.616
305.962
304.272
302.565
300.855
300.113
300.344
300.597
300.885
301.225
301.633
302.124
302.712
303.407
304.215
305.139
306.174
307.31
308.53
309.814
311.135
312.465
313.774
315.028
316.197
317.25
318.16
318.902
319.452
319.792
319.908
319.789
319.429
318.828
317.989
316.924
315.648
314.182
312.553
310.789
308.924
306.987
305.006
303.006
301.001
300.13
300.399
300.691
301.025
301.42
301.895
302.466
303.151
303.96
304.902
305.976
307.177
308.493
309.903
311.383
312.903
314.429
315.925
317.357
318.688
319.887
320.921
321.764
322.39
322.78
322.916
322.786
322.383
321.704
320.754
319.542
318.084
316.405
314.532
312.5
310.344
308.102
305.807
303.487
301.161
300.15
300.458
300.794
301.179
301.634
302.181
302.841
303.631
304.565
305.65
306.885
308.264
309.77
311.38
313.065
314.788
316.513
318.2
319.81
321.304
322.647
323.805
324.749
325.453
325.894
326.053
325.917
325.476
324.725
323.666
322.309
320.67
318.772
316.647
314.333
311.87
309.303
306.67
304.006
301.334
300.171
300.523
300.907
301.346
301.867
302.493
303.248
304.152
305.219
306.456
307.863
309.428
311.131
312.946
314.837
316.765
318.688
320.562
322.345
323.997
325.478
326.757
327.8
328.582
329.078
329.267
329.132
328.662
327.848
326.69
325.194
323.377
321.261
318.88
316.275
313.493
310.582
307.591
304.56
301.519
300.194
300.593
301.028
301.527
302.117
302.828
303.685
304.71
305.918
307.316
308.899
310.655
312.559
314.578
316.674
318.801
320.913
322.965
324.911
326.709
328.322
329.714
330.855
331.715
332.27
332.497
332.375
331.89
331.028
329.786
328.166
326.18
323.852
321.216
318.315
315.203
311.936
308.568
305.149
301.715
300.219
300.668
301.158
301.72
302.385
303.186
304.151
305.303
306.658
308.22
309.984
311.93
314.032
316.25
318.54
320.854
323.142
325.355
327.448
329.38
331.112
332.61
333.844
334.785
335.406
335.683
335.591
335.11
334.223
332.918
331.193
329.055
326.527
323.641
320.445
316.996
313.358
309.597
305.77
301.923
300.245
300.748
301.297
301.925
302.669
303.565
304.642
305.926
307.43
309.158
311.1
313.234
315.524
317.928
320.397
322.878
325.32
327.674
329.895
331.941
333.778
335.373
336.698
337.723
338.422
338.765
338.725
338.275
337.39
336.051
334.248
331.982
329.271
326.146
322.657
318.867
314.849
310.678
306.424
302.141
300.272
300.832
301.442
302.141
302.968
303.961
305.154
306.571
308.226
310.117
312.232
314.541
317.005
319.576
322.2
324.823
327.393
329.861
332.184
334.325
336.252
337.936
339.349
340.465
341.254
341.686
341.725
341.338
340.491
339.155
337.308
334.945
332.074
328.727
324.952
320.819
316.41
311.814
307.112
302.37
300.301
300.92
301.595
302.366
303.279
304.373
305.683
307.232
309.033
311.081
313.356
315.824
318.441
321.152
323.902
326.635
329.301
331.852
334.251
336.465
338.466
340.23
341.733
342.948
343.846
344.391
344.543
344.258
343.491
342.201
340.354
337.93
334.931
331.382
327.332
322.856
318.047
313.008
307.836
302.612
300.331
301.012
301.753
302.6
303.6
304.795
306.221
307.9
309.84
312.032
314.45
317.054
319.794
322.613
325.453
328.261
330.986
333.589
336.035
338.299
340.36
342.198
343.791
345.117
346.143
346.831
347.133
346.995
346.357
345.165
343.367
340.929
337.84
334.115
329.804
324.987
319.768
314.267
308.601
302.868
300.362
301.106
301.916
302.839
303.927
305.223
306.761
308.563
310.63
312.949
315.486
318.197
321.025
323.914
326.805
329.646
332.394
335.014
337.48
339.774
341.88
343.786
345.474
346.923
348.1
348.962
349.454
349.51
349.057
348.02
346.329
343.932
340.797
336.932
332.38
327.225
321.587
315.603
309.414
303.14
300.394
301.203
302.082
303.083
304.258
305.651
307.296
309.209
311.387
313.809
316.436
319.218
322.096
325.012
327.911
330.745
333.478
336.083
338.542
340.845
342.985
344.954
346.742
348.326
349.676
350.744
351.467
351.768
351.558
350.74
349.222
346.927
343.804
339.84
335.072
329.588
323.52
317.029
310.284
303.431
300.426
301.301
302.25
303.328
304.588
306.074
307.816
309.825
312.093
314.589
317.271
320.084
322.968
325.867
328.73
331.518
334.201
336.761
339.19
341.486
343.649
345.679
347.569
349.301
350.844
352.147
353.14
353.736
353.826
353.295
352.023
349.902
346.854
342.844
337.895
332.094
325.586
318.561
311.221
303.744
300.459
301.4
302.419
303.572
304.913
306.484
308.311
310.397
312.727
315.265
317.962
320.762
323.608
326.446
329.233
331.938
334.54
337.03
339.411
341.687
343.866
345.955
347.95
349.838
351.588
353.15
354.448
355.382
355.831
355.654
354.703
352.837
349.941
345.95
340.863
334.764
327.809
320.219
312.238
304.085
300.492
301.499
302.587
303.813
305.23
306.876
308.769
310.908
313.269
315.811
318.482
321.226
323.99
326.727
329.403
331.995
334.492
336.897
339.216
341.464
343.655
345.8
347.901
349.949
351.916
353.751
355.377
356.687
357.544
357.786
357.234
355.709
353.052
349.156
343.991
337.621
330.217
322.029
313.351
304.458
300.525
301.598
302.754
304.05
305.534
307.24
309.181
311.345
313.703
316.208
318.811
321.457
324.101
326.704
329.242
331.702
334.083
336.393
338.647
340.865
343.066
345.265
347.471
349.676
351.859
353.971
355.936
357.643
358.946
359.663
359.583
358.487
356.166
352.459
347.288
340.692
332.84
324.019
314.582
304.87
300.558
301.698
302.92
304.279
305.821
307.572
309.535
311.694
314.012
316.443
318.939
321.454
323.949
326.398
328.786
331.108
333.371
335.59
337.784
339.976
342.189
344.441
346.745
349.099
351.485
353.863
356.16
358.268
360.035
361.265
361.721
361.141
359.259
355.847
350.765
344.003
335.719
326.229
315.957
305.332
300.593
301.801
303.087
304.504
306.091
307.867
309.828
311.95
314.195
316.519
318.881
321.243
323.577
325.868
328.109
330.304
332.463
334.605
336.753
338.93
341.16
343.464
345.856
348.341
350.908
353.524
356.125
358.611
360.834
362.592
363.627
363.638
362.298
359.302
354.425
347.583
338.898
328.706
317.511
305.854
300.631
301.911
303.26
304.728
306.348
308.13
310.065
312.124
314.272
316.471
318.688
320.897
323.081
325.231
327.349
329.444
331.528
333.621
335.744
337.921
340.175
342.527
344.994
347.584
350.295
353.102
355.956
358.77
361.408
363.673
365.299
365.952
365.25
362.799
358.266
351.462
342.434
331.515
319.293
306.455
300.677
302.038
303.454
304.97
306.613
308.388
310.282
312.268
314.316
316.396
318.486
320.57
322.639
324.691
326.731
328.769
330.818
332.896
335.021
337.215
339.498
341.89
344.41
347.07
349.873
352.806
355.838
358.898
361.872
364.581
366.765
368.076
368.082
366.303
362.276
355.667
346.395
334.743
321.372
307.158
300.74
302.209
303.704
305.272
306.942
308.715
310.58
312.514
314.494
316.501
318.519
320.539
322.558
324.576
326.599
328.635
330.694
332.791
334.941
337.161
339.47
341.886
344.427
347.107
349.937
352.915
356.023
359.217
362.409
365.449
368.103
370.031
370.774
369.773
366.43
360.218
350.861
338.509
323.854
308.002
300.843
302.476
304.09
305.745
307.479
309.301
311.199
313.156
315.155
317.181
319.222
321.27
323.324
325.384
327.451
329.534
331.638
333.775
335.957
338.198
340.513
342.918
345.431
348.069
350.845
353.768
356.835
360.024
363.278
366.488
369.461
371.893
373.332
373.172
370.684
365.121
355.921
342.976
326.9
309.051
301.037
302.968
304.804
306.652
308.572
310.577
312.654
314.783
316.944
319.121
321.3
323.476
325.643
327.802
329.954
332.104
334.259
336.426
338.616
340.84
343.113
345.45
347.866
350.379
353.006
355.762
358.655
361.682
364.818
367.994
371.075
373.817
375.819
376.479
374.979
370.35
361.66
348.364
330.774
310.419
301.445
303.989
306.313
308.623
311.002
313.452
315.943
318.442
320.923
323.37
325.773
328.126
330.431
332.689
334.906
337.087
339.241
341.377
343.505
345.636
347.784
349.963
352.188
354.476
356.845
359.312
361.894
364.599
367.427
370.347
373.282
376.066
378.389
379.723
379.248
375.831
368.132
354.955
335.907
312.338
302.388
306.311
309.762
313.09
316.379
319.607
322.732
325.728
328.584
331.301
333.885
336.346
338.696
340.948
343.114
345.206
347.235
349.215
351.156
353.072
354.975
356.879
358.797
360.745
362.74
364.798
366.939
369.176
371.522
373.974
376.502
379.017
381.325
383.037
383.452
381.425
375.295
363.054
343.004
315.326
304.829
312.009
317.858
322.96
327.511
331.595
335.265
338.572
341.566
344.294
346.796
349.105
351.252
353.26
355.152
356.945
358.655
360.297
361.884
363.427
364.94
366.434
367.921
369.413
370.924
372.467
374.059
375.714
377.446
379.265
381.169
383.128
385.049
386.712
387.65
386.941
382.913
372.863
353.14
320.634
312.417
326.821
336.175
342.869
348.014
352.148
355.563
358.446
360.923
363.087
365.003
366.723
368.283
369.714
371.037
372.271
373.432
374.532
375.582
376.593
377.572
378.529
379.472
380.409
381.349
382.3
383.273
384.276
385.322
386.42
387.575
388.784
390.019
391.195
392.098
392.231
390.443
384.137
367.764
331.436
343.129
363.923
372.395
377.048
380.043
382.165
383.766
385.029
386.063
386.932
387.681
388.337
388.922
389.451
389.934
390.379
390.795
391.185
391.555
391.908
392.248
392.579
392.902
393.221
393.539
393.859
394.184
394.517
394.863
395.224
395.604
396.003
396.418
396.831
397.193
397.388
397.119
395.485
388.275
356.589
)
;

boundaryField
{
    movingWall
    {
        type            fixedValue;
        value           uniform 400;
    }
    fixedWalls
    {
        type            fixedValue;
        value           uniform 300;
    }
    frontAndBack
    {
        type            empty;
    }
}


// ************************************************************************* //
