/*--------------------------------*- C++ -*----------------------------------*\
| =========                 |                                                 |
| \\      /  F ield         | OpenFOAM: The Open Source CFD Toolbox           |
|  \\    /   O peration     | Version:  2206                                  |
|   \\  /    A nd           | Website:  www.openfoam.com                      |
|    \\/     M anipulation  |                                                 |
\*---------------------------------------------------------------------------*/
FoamFile
{
    version     2.0;
    format      ascii;
    arch        "LSB;label=32;scalar=64";
    class       volVectorField;
    location    "0.4";
    object      U;
}
// * * * * * * * * * * * * * * * * * * * * * * * * * * * * * * * * * * * * * //

dimensions      [0 1 -1 0 0 0 0];

internalField   nonuniform List<vector> 
1600
(
(6.05634e-05 -6.05207e-05 0)
(0.00015598 -5.71634e-05 0)
(0.000156896 -7.05323e-06 0)
(6.62255e-06 5.24579e-05 0)
(-0.000303307 0.00010801 0)
(-0.000756515 0.00015489 0)
(-0.00132853 0.000191736 0)
(-0.00199238 0.00021859 0)
(-0.00272085 0.000236026 0)
(-0.00348764 0.000244792 0)
(-0.00426803 0.00024568 0)
(-0.00503915 0.000239472 0)
(-0.00578013 0.000226932 0)
(-0.00647223 0.000208794 0)
(-0.0070988 0.000185767 0)
(-0.00764536 0.000158543 0)
(-0.00809957 0.000127804 0)
(-0.00845131 9.423e-05 0)
(-0.00869263 5.85114e-05 0)
(-0.00881791 2.13569e-05 0)
(-0.00882386 -1.64988e-05 0)
(-0.00870961 -5.42886e-05 0)
(-0.00847686 -9.12092e-05 0)
(-0.00812991 -0.000126421 0)
(-0.00767576 -0.000159052 0)
(-0.0071242 -0.000188204 0)
(-0.0064878 -0.000212962 0)
(-0.00578189 -0.000232413 0)
(-0.00502452 -0.000245656 0)
(-0.00423628 -0.000251825 0)
(-0.0034401 -0.000250106 0)
(-0.00266091 -0.000239758 0)
(-0.00192523 -0.000220146 0)
(-0.00126056 -0.000190789 0)
(-0.000694461 -0.000151487 0)
(-0.000253181 -0.000102662 0)
(4.07738e-05 -4.61955e-05 0)
(0.000174275 1.26761e-05 0)
(0.000160346 6.02354e-05 0)
(6.02886e-05 6.0053e-05 0)
(5.87191e-05 -0.000156944 0)
(7.25982e-05 -6.95067e-05 0)
(-0.000178425 0.000182313 0)
(-0.000772672 0.000476946 0)
(-0.00172469 0.000761035 0)
(-0.00300792 0.00100943 0)
(-0.00457381 0.00121083 0)
(-0.00636296 0.00136133 0)
(-0.0083116 0.00146083 0)
(-0.0103555 0.00151123 0)
(-0.0124324 0.00151551 0)
(-0.0144834 0.00147723 0)
(-0.0164539 0.00140025 0)
(-0.0182945 0.00128864 0)
(-0.0199607 0.00114652 0)
(-0.0214138 0.000978095 0)
(-0.0226207 0.000787629 0)
(-0.0235543 0.000579454 0)
(-0.0241934 0.000358004 0)
(-0.0245232 0.00012784 0)
(-0.0245352 -0.000106321 0)
(-0.0242274 -0.000339594 0)
(-0.0236049 -0.000566918 0)
(-0.0226796 -0.000783073 0)
(-0.0214707 -0.000982711 0)
(-0.0200047 -0.00116041 0)
(-0.0183152 -0.00131078 0)
(-0.0164429 -0.0014285 0)
(-0.0144353 -0.00150854 0)
(-0.0123461 -0.00154622 0)
(-0.0102343 -0.00153747 0)
(-0.00816323 -0.00147899 0)
(-0.00619908 -0.00136864 0)
(-0.00440857 -0.00120585 0)
(-0.00285609 -0.000992518 0)
(-0.0015994 -0.0007347 0)
(-0.000682947 -0.000445949 0)
(-0.000126883 -0.000153427 0)
(9.20276e-05 8.84256e-05 0)
(6.17846e-05 0.000160744 0)
(1.14741e-05 -0.000162754 0)
(-0.000171875 0.00017843 0)
(-0.00080397 0.000813882 0)
(-0.00193093 0.00153629 0)
(-0.00355367 0.00223865 0)
(-0.00563623 0.00286147 0)
(-0.0081138 0.00337317 0)
(-0.0109049 0.00375935 0)
(-0.01392 0.00401587 0)
(-0.0170671 0.00414465 0)
(-0.0202554 0.0041514 0)
(-0.0233982 0.00404409 0)
(-0.0264141 0.00383216 0)
(-0.0292286 0.00352592 0)
(-0.0317749 0.00313629 0)
(-0.0339941 0.00267457 0)
(-0.0358363 0.0021524 0)
(-0.03726 0.00158174 0)
(-0.0382334 0.000974873 0)
(-0.038734 0.000344471 0)
(-0.038749 -0.000296398 0)
(-0.0382762 -0.000934238 0)
(-0.0373232 -0.00155514 0)
(-0.0359089 -0.00214484 0)
(-0.0340624 -0.00268885 0)
(-0.0318242 -0.00317258 0)
(-0.0292451 -0.00358164 0)
(-0.0263866 -0.00390209 0)
(-0.0233198 -0.00412085 0)
(-0.0201246 -0.00422616 0)
(-0.0168885 -0.00420814 0)
(-0.0137043 -0.00405954 0)
(-0.0106679 -0.00377666 0)
(-0.00787476 -0.00336076 0)
(-0.00541532 -0.00282028 0)
(-0.00336908 -0.00217457 0)
(-0.0017957 -0.00146027 0)
(-0.000723089 -0.000741156 0)
(-0.000138845 -0.000126436 0)
(1.76911e-05 0.000180035 0)
(-4.54237e-05 -2.19962e-05 0)
(-0.00046437 0.000767987 0)
(-0.00153533 0.00194136 0)
(-0.00324169 0.00322658 0)
(-0.00555436 0.004468 0)
(-0.00842235 0.00557077 0)
(-0.0117647 0.00647986 0)
(-0.0154814 0.00716718 0)
(-0.0194628 0.00762209 0)
(-0.0235953 0.00784528 0)
(-0.0277663 0.00784489 0)
(-0.0318669 0.00763394 0)
(-0.0357946 0.00722868 0)
(-0.0394551 0.00664751 0)
(-0.0427632 0.00591032 0)
(-0.0456441 0.00503801 0)
(-0.0480337 0.00405233 0)
(-0.0498793 0.00297576 0)
(-0.05114 0.00183148 0)
(-0.0517873 0.000643418 0)
(-0.0518052 -0.000563766 0)
(-0.0511907 -0.00176464 0)
(-0.0499541 -0.0029331 0)
(-0.0481196 -0.00404246 0)
(-0.0457248 -0.0050657 0)
(-0.0428212 -0.00597585 0)
(-0.0394738 -0.00674636 0)
(-0.0357605 -0.00735182 0)
(-0.0317714 -0.00776859 0)
(-0.0276074 -0.0079758 0)
(-0.0233781 -0.00795642 0)
(-0.0191996 -0.00769869 0)
(-0.0151908 -0.00719786 0)
(-0.0114697 -0.00645875 0)
(-0.00814738 -0.00549922 0)
(-0.00532197 -0.00435576 0)
(-0.00306884 -0.00309189 0)
(-0.00142985 -0.00180983 0)
(-0.000420055 -0.000669526 0)
(-3.67008e-05 5.97871e-05 0)
(-0.000100537 0.000278597 0)
(-0.000761232 0.00172913 0)
(-0.00228977 0.00359192 0)
(-0.00459349 0.00555592 0)
(-0.00760285 0.00742845 0)
(-0.0112458 0.00908441 0)
(-0.0154227 0.0104469 0)
(-0.0200153 0.0114737 0)
(-0.0248961 0.0121471 0)
(-0.0299337 0.0124659 0)
(-0.0349973 0.0124405 0)
(-0.0399605 0.0120894 0)
(-0.0447037 0.0114364 0)
(-0.0491167 0.0105093 0)
(-0.0530999 0.0093384 0)
(-0.0565652 0.00795621 0)
(-0.0594375 0.00639659 0)
(-0.0616548 0.00469475 0)
(-0.063169 0.00288709 0)
(-0.0639467 0.00101122 0)
(-0.0639691 -0.000894095 0)
(-0.0632327 -0.00278895 0)
(-0.0617499 -0.00463245 0)
(-0.0595488 -0.00638293 0)
(-0.0566738 -0.00799833 0)
(-0.0531853 -0.00943677 0)
(-0.0491593 -0.0106573 0)
(-0.044687 -0.0116208 0)
(-0.0398737 -0.0122914 0)
(-0.0348368 -0.0126375 0)
(-0.0297039 -0.0126341 0)
(-0.0246099 -0.0122644 0)
(-0.0196931 -0.0115229 0)
(-0.0150902 -0.0104188 0)
(-0.0109314 -0.00898027 0)
(-0.00733326 -0.00726177 0)
(-0.00438998 -0.00535286 0)
(-0.00216363 -0.00338992 0)
(-0.000707283 -0.00157333 0)
(-8.96652e-05 -0.0002147 0)
(-0.000150812 0.000732636 0)
(-0.00104599 0.00306263 0)
(-0.00302963 0.00577286 0)
(-0.00593056 0.00853169 0)
(-0.00963363 0.011121 0)
(-0.014041 0.0133925 0)
(-0.0190311 0.015251 0)
(-0.0244666 0.0166424 0)
(-0.0302024 0.0175423 0)
(-0.0360907 0.0179482 0)
(-0.0419851 0.0178732 0)
(-0.0477444 0.0173418 0)
(-0.0532352 0.0163863 0)
(-0.0583341 0.0150449 0)
(-0.0629299 0.0133599 0)
(-0.0669242 0.0113765 0)
(-0.0702327 0.00914266 0)
(-0.0727862 0.00670794 0)
(-0.0745308 0.00412388 0)
(-0.0754289 0.00144371 0)
(-0.0754593 -0.00127771 0)
(-0.0746182 -0.00398397 0)
(-0.0729191 -0.00661733 0)
(-0.0703933 -0.00911905 0)
(-0.0670901 -0.01143 0)
(-0.0630767 -0.0134913 0)
(-0.0584379 -0.0152458 0)
(-0.0532753 -0.0166388 0)
(-0.0477063 -0.0176205 0)
(-0.0418619 -0.0181474 0)
(-0.0358849 -0.0181851 0)
(-0.0299263 -0.0177114 0)
(-0.0241411 -0.0167194 0)
(-0.0186843 -0.0152221 0)
(-0.0137046 -0.0132579 0)
(-0.0093391 -0.0108977 0)
(-0.00570402 -0.00825392 0)
(-0.00288674 -0.0054913 0)
(-0.000983749 -0.00284036 0)
(-0.000137975 -0.000637764 0)
(-0.000196153 0.00132979 0)
(-0.00131429 0.00475707 0)
(-0.00374109 0.00847654 0)
(-0.00722971 0.0121483 0)
(-0.0116178 0.0155384 0)
(-0.0167785 0.0184827 0)
(-0.0225661 0.0208726 0)
(-0.0288219 0.0226451 0)
(-0.035383 0.0237713 0)
(-0.0420856 0.0242487 0)
(-0.0487691 0.0240942 0)
(-0.055279 0.0233394 0)
(-0.0614701 0.022026 0)
(-0.0672085 0.0202039 0)
(-0.0723732 0.0179284 0)
(-0.0768575 0.015259 0)
(-0.0805701 0.0122586 0)
(-0.0834356 0.00899286 0)
(-0.0853957 0.00552985 0)
(-0.0864093 0.00193988 0)
(-0.0864533 -0.00170454 0)
(-0.0855229 -0.00532895 0)
(-0.0836323 -0.00885715 0)
(-0.0808149 -0.0122117 0)
(-0.0771234 -0.0153147 0)
(-0.0726303 -0.0180888 0)
(-0.0674267 -0.0204585 0)
(-0.0616226 -0.0223524 0)
(-0.0553452 -0.0237048 0)
(-0.048737 -0.024459 0)
(-0.0419539 -0.02457 0)
(-0.0351614 -0.0240085 0)
(-0.028531 -0.0227651 0)
(-0.0222354 -0.0208555 0)
(-0.0164433 -0.0183262 0)
(-0.0113143 -0.0152619 0)
(-0.00698996 -0.0117941 0)
(-0.00358634 -0.00810977 0)
(-0.0012453 -0.00446129 0)
(-0.000181509 -0.0011997 0)
(-0.000237489 0.00206033 0)
(-0.00156733 0.00679788 0)
(-0.00442309 0.0116895 0)
(-0.00848673 0.0163941 0)
(-0.013549 0.0206697 0)
(-0.0194526 0.0243422 0)
(-0.0260252 0.0272951 0)
(-0.0330857 0.0294601 0)
(-0.0404522 0.0308069 0)
(-0.0479449 0.0313352 0)
(-0.0553891 0.0310675 0)
(-0.0626186 0.0300437 0)
(-0.0694777 0.0283166 0)
(-0.0758232 0.0259487 0)
(-0.0815264 0.0230095 0)
(-0.086474 0.019574 0)
(-0.0905687 0.0157213 0)
(-0.0937308 0.0115341 0)
(-0.095898 0.00709795 0)
(-0.0970263 0.00250152 0)
(-0.0970908 -0.00216401 0)
(-0.0960858 -0.00680495 0)
(-0.0940252 -0.0113255 0)
(-0.0909435 -0.0156282 0)
(-0.0868958 -0.019615 0)
(-0.0819576 -0.0231887 0)
(-0.0762251 -0.0262541 0)
(-0.0698147 -0.0287212 0)
(-0.0628616 -0.0305071 0)
(-0.0555183 -0.0315397 0)
(-0.0479524 -0.0317619 0)
(-0.0403435 -0.0311354 0)
(-0.0328793 -0.0296464 0)
(-0.0257512 -0.0273107 0)
(-0.0191493 -0.0241804 0)
(-0.0132582 -0.0203509 0)
(-0.0082471 -0.0159683 0)
(-0.00426316 -0.0112367 0)
(-0.00149375 -0.00642443 0)
(-0.000221281 -0.00189164 0)
(-0.00027596 0.0029165 0)
(-0.00180847 0.0091717 0)
(-0.00508054 0.0153982 0)
(-0.00970731 0.0212573 0)
(-0.0154338 0.0265041 0)
(-0.0220711 0.0309604 0)
(-0.0294193 0.0345064 0)
(-0.0372734 0.0370727 0)
(-0.0454316 0.0386312 0)
(-0.0536976 0.0391864 0)
(-0.0618831 0.0387688 0)
(-0.0698106 0.0374287 0)
(-0.0773146 0.0352314 0)
(-0.0842445 0.0322534 0)
(-0.0904648 0.0285798 0)
(-0.0958569 0.0243019 0)
(-0.100319 0.019516 0)
(-0.103768 0.0143226 0)
(-0.106139 0.00882579 0)
(-0.107384 0.00313305 0)
(-0.107478 -0.00264496 0)
(-0.106413 -0.00839456 0)
(-0.104202 -0.0139995 0)
(-0.10088 -0.0193414 0)
(-0.0965031 -0.0243011 0)
(-0.0911485 -0.0287599 0)
(-0.0849156 -0.032602 0)
(-0.0779256 -0.0357168 0)
(-0.0703203 -0.0380022 0)
(-0.0622609 -0.0393692 0)
(-0.0539262 -0.0397458 0)
(-0.0455095 -0.0390826 0)
(-0.037215 -0.0373583 0)
(-0.029254 -0.0345863 0)
(-0.0218399 -0.0308207 0)
(-0.015184 -0.026164 0)
(-0.00948569 -0.0207731 0)
(-0.00492463 -0.0148649 0)
(-0.0017334 -0.00872034 0)
(-0.000258588 -0.00270705 0)
(-0.000312619 0.00389276 0)
(-0.00204158 0.0118682 0)
(-0.00572075 0.0195917 0)
(-0.0109017 0.026728 0)
(-0.0172846 0.0330332 0)
(-0.0246487 0.0383293 0)
(-0.0327656 0.0424978 0)
(-0.0414052 0.0454728 0)
(-0.0503452 0.0472317 0)
(-0.0593723 0.0477874 0)
(-0.0682846 0.0471811 0)
(-0.0768935 0.0454758 0)
(-0.0850252 0.0427512 0)
(-0.0925219 0.0390995 0)
(-0.0992431 0.0346225 0)
(-0.105066 0.0294289 0)
(-0.109885 0.0236331 0)
(-0.113615 0.0173539 0)
(-0.116188 0.0107142 0)
(-0.117555 0.00384101 0)
(-0.117688 -0.00313533 0)
(-0.116578 -0.0100807 0)
(-0.114237 -0.0168579 0)
(-0.110698 -0.0233271 0)
(-0.106017 -0.0293469 0)
(-0.100272 -0.0347765 0)
(-0.0935635 -0.0394775 0)
(-0.0860165 -0.0433172 0)
(-0.0777778 -0.0461725 0)
(-0.0690164 -0.0479347 0)
(-0.0599215 -0.0485142 0)
(-0.0507 -0.0478475 0)
(-0.0415736 -0.0459025 0)
(-0.0327742 -0.0426865 0)
(-0.0245404 -0.0382522 0)
(-0.0171123 -0.032705 0)
(-0.0107213 -0.0262093 0)
(-0.00558108 -0.0189918 0)
(-0.00196929 -0.011344 0)
(-0.000294693 -0.00364223 0)
(-0.000348369 0.00498585 0)
(-0.00227046 0.0148809 0)
(-0.00635158 0.0242626 0)
(-0.0120815 0.0327995 0)
(-0.0191164 0.040251 0)
(-0.0272032 0.0464432 0)
(-0.0360839 0.0512633 0)
(-0.0455029 0.0546527 0)
(-0.0552165 0.0565987 0)
(-0.0649942 0.0571264 0)
(-0.0746205 0.0562906 0)
(-0.0838963 0.0541698 0)
(-0.0926399 0.0508603 0)
(-0.100688 0.0464719 0)
(-0.107895 0.0411242 0)
(-0.114137 0.0349446 0)
(-0.119305 0.0280658 0)
(-0.123311 0.0206256 0)
(-0.126087 0.0127662 0)
(-0.127582 0.00463353 0)
(-0.127765 -0.00362191 0)
(-0.126627 -0.0118457 0)
(-0.124176 -0.0198794 0)
(-0.120444 -0.0275613 0)
(-0.115484 -0.0347275 0)
(-0.109375 -0.0412137 0)
(-0.102216 -0.0468577 0)
(-0.0941345 -0.051503 0)
(-0.0852805 -0.055003 0)
(-0.0758297 -0.0572263 0)
(-0.0659813 -0.0580631 0)
(-0.0559558 -0.0574313 0)
(-0.0459924 -0.0552848 0)
(-0.0363454 -0.0516202 0)
(-0.0272798 -0.0464848 0)
(-0.0190668 -0.0399832 0)
(-0.0119717 -0.0322836 0)
(-0.00624376 -0.0236207 0)
(-0.00220654 -0.0142959 0)
(-0.000330736 -0.00469634 0)
(-0.000383962 0.00619445 0)
(-0.00249852 0.0182071 0)
(-0.0069806 0.0294079 0)
(-0.0132586 0.0394689 0)
(-0.0209443 0.0481547 0)
(-0.029752 0.0552988 0)
(-0.0393934 0.060798 0)
(-0.0495865 0.0646057 0)
(-0.0600655 0.0667234 0)
(-0.0705828 0.0671919 0)
(-0.0809094 0.0660837 0)
(-0.0908362 0.0634956 0)
(-0.100175 0.0595431 0)
(-0.108757 0.0543554 0)
(-0.116435 0.0480717 0)
(-0.123081 0.0408385 0)
(-0.128588 0.0328078 0)
(-0.132866 0.0241364 0)
(-0.135845 0.0149853 0)
(-0.137474 0.00551981 0)
(-0.137721 -0.00409018 0)
(-0.136572 -0.0136701 0)
(-0.134034 -0.0230407 0)
(-0.130135 -0.0320182 0)
(-0.124927 -0.0404158 0)
(-0.118482 -0.0480449 0)
(-0.110902 -0.0547182 0)
(-0.102311 -0.0602534 0)
(-0.092862 -0.0644779 0)
(-0.0827367 -0.0672345 0)
(-0.0721427 -0.068389 0)
(-0.0613139 -0.0678372 0)
(-0.0505076 -0.0655136 0)
(-0.0400012 -0.0614 0)
(-0.0300879 -0.0555332 0)
(-0.021072 -0.0480134 0)
(-0.0132551 -0.0390094 0)
(-0.00692394 -0.0287617 0)
(-0.00245004 -0.0175819 0)
(-0.000367736 -0.00587125 0)
(-0.000420022 0.007519 0)
(-0.00272882 0.0218475 0)
(-0.00761477 0.0350287 0)
(-0.0144439 0.0467372 0)
(-0.0227828 0.0567444 0)
(-0.0323118 0.0648945 0)
(-0.0427114 0.0710981 0)
(-0.0536725 0.075325 0)
(-0.0649072 0.0775954 0)
(-0.0761502 0.0779706 0)
(-0.0871596 0.0765443 0)
(-0.0977175 0.0734354 0)
(-0.107629 0.0687812 0)
(-0.116724 0.0627324 0)
(-0.124853 0.0554491 0)
(-0.131887 0.047098 0)
(-0.13772 0.0378509 0)
(-0.142262 0.0278833 0)
(-0.145444 0.0173749 0)
(-0.147213 0.00650951 0)
(-0.147536 -0.0045243 0)
(-0.146396 -0.0155326 0)
(-0.143797 -0.0263156 0)
(-0.139762 -0.0366683 0)
(-0.134338 -0.0463804 0)
(-0.127594 -0.0552388 0)
(-0.119626 -0.0630298 0)
(-0.110557 -0.0695431 0)
(-0.100541 -0.0745774 0)
(-0.0897613 -0.0779462 0)
(-0.0784341 -0.0794867 0)
(-0.0668056 -0.0790673 0)
(-0.0551515 -0.0765983 0)
(-0.043773 -0.0720409 0)
(-0.0329932 -0.0654167 0)
(-0.0231518 -0.0568165 0)
(-0.0145891 -0.0464065 0)
(-0.00763245 -0.0344314 0)
(-0.00270439 -0.0212135 0)
(-0.000406604 -0.00717139 0)
(-0.000457084 0.00896142 0)
(-0.00296404 0.0258064 0)
(-0.0082604 0.0411298 0)
(-0.0156475 0.0546086 0)
(-0.0246445 0.0660226 0)
(-0.0348967 0.0752299 0)
(-0.046052 0.0821591 0)
(-0.0577733 0.0868016 0)
(-0.0697499 0.0892013 0)
(-0.0816997 0.0894446 0)
(-0.0933684 0.0876512 0)
(-0.10453 0.0839656 0)
(-0.114987 0.0785499 0)
(-0.124565 0.0715788 0)
(-0.133116 0.0632348 0)
(-0.140514 0.0537058 0)
(-0.146654 0.043183 0)
(-0.151449 0.0318609 0)
(-0.15483 0.0199368 0)
(-0.156744 0.00761206 0)
(-0.157156 -0.00490717 0)
(-0.156047 -0.0174088 0)
(-0.153416 -0.029674 0)
(-0.149282 -0.0414765 0)
(-0.143683 -0.0525837 0)
(-0.136683 -0.0627571 0)
(-0.128371 -0.0717555 0)
(-0.118866 -0.079339 0)
(-0.108318 -0.0852742 0)
(-0.0969133 -0.089342 0)
(-0.0848726 -0.0913455 0)
(-0.072454 -0.0911207 0)
(-0.0599506 -0.0885472 0)
(-0.0476884 -0.0835594 0)
(-0.0360219 -0.0761576 0)
(-0.0253283 -0.0664182 0)
(-0.0159904 -0.0545011 0)
(-0.00837958 -0.0406529 0)
(-0.00297389 -0.0252072 0)
(-0.000448178 -0.00860346 0)
(-0.000495624 0.010525 0)
(-0.00320666 0.0300908 0)
(-0.00892326 0.0477198 0)
(-0.0168783 0.0630906 0)
(-0.026541 0.0759938 0)
(-0.0375188 0.0863048 0)
(-0.0494258 0.0939751 0)
(-0.0618957 0.099023 0)
(-0.0745951 0.101522 0)
(-0.087225 0.101589 0)
(-0.0995203 0.099375 0)
(-0.111249 0.0950536 0)
(-0.12221 0.0888157 0)
(-0.132231 0.0808619 0)
(-0.141167 0.0713991 0)
(-0.148897 0.0606366 0)
(-0.155317 0.0487857 0)
(-0.160345 0.0360587 0)
(-0.163915 0.0226697 0)
(-0.165976 0.00883586 0)
(-0.16649 -0.00522072 0)
(-0.165437 -0.0192716 0)
(-0.162809 -0.0330802 0)
(-0.158617 -0.046401 0)
(-0.152894 -0.058979 0)
(-0.145692 -0.0705509 0)
(-0.137091 -0.0808473 0)
(-0.127204 -0.0895965 0)
(-0.116174 -0.0965304 0)
(-0.104185 -0.101392 0)
(-0.091462 -0.103947 0)
(-0.0782717 -0.10399 0)
(-0.0649242 -0.101365 0)
(-0.0517701 -0.095971 0)
(-0.0391968 -0.0877804 0)
(-0.0276222 -0.0768488 0)
(-0.0174749 -0.063325 0)
(-0.00917509 -0.0474555 0)
(-0.00326265 -0.0295847 0)
(-0.000493249 -0.0101764 0)
(-0.000536093 0.0122142 0)
(-0.00345904 0.0347105 0)
(-0.0096089 0.0548101 0)
(-0.0181451 0.0721932 0)
(-0.0284825 0.0866634 0)
(-0.0401882 0.0981178 0)
(-0.05284 0.106536 0)
(-0.0660414 0.111971 0)
(-0.079436 0.114531 0)
(-0.092709 0.11437 0)
(-0.105586 0.111675 0)
(-0.11783 0.106655 0)
(-0.129241 0.0995323 0)
(-0.139652 0.0905367 0)
(-0.148922 0.0799003 0)
(-0.156935 0.0678552 0)
(-0.163598 0.0546319 0)
(-0.168833 0.0404596 0)
(-0.172577 0.0255677 0)
(-0.174781 0.0101872 0)
(-0.17541 -0.00544631 0)
(-0.174437 -0.0210903 0)
(-0.17185 -0.036493 0)
(-0.167652 -0.051391 0)
(-0.161864 -0.065509 0)
(-0.154527 -0.0785592 0)
(-0.145709 -0.0902434 0)
(-0.13551 -0.100257 0)
(-0.124064 -0.108293 0)
(-0.111549 -0.114054 0)
(-0.0981897 -0.11726 0)
(-0.0842592 -0.11766 0)
(-0.0700826 -0.11505 0)
(-0.0560348 -0.109288 0)
(-0.0425375 -0.10031 0)
(-0.0300519 -0.0881414 0)
(-0.0190572 -0.0729153 0)
(-0.0100284 -0.0548739 0)
(-0.00357468 -0.0343722 0)
(-0.000542601 -0.0119013 0)
(-0.000578964 0.0140348 0)
(-0.00372361 0.0396781 0)
(-0.010323 0.0624154 0)
(-0.0194562 0.0819286 0)
(-0.0304788 0.0980373 0)
(-0.0429132 0.110666 0)
(-0.0562984 0.119829 0)
(-0.0702063 0.125619 0)
(-0.0842576 0.12819 0)
(-0.0981228 0.127739 0)
(-0.11152 0.124496 0)
(-0.124212 0.118709 0)
(-0.136002 0.110638 0)
(-0.146729 0.100542 0)
(-0.156263 0.0886823 0)
(-0.164499 0.0753128 0)
(-0.171352 0.0606829 0)
(-0.176754 0.0450375 0)
(-0.180648 0.0286188 0)
(-0.182989 0.0116691 0)
(-0.18374 -0.0055654 0)
(-0.182874 -0.0228313 0)
(-0.180373 -0.0398643 0)
(-0.176228 -0.0563865 0)
(-0.170447 -0.0721037 0)
(-0.163058 -0.0867053 0)
(-0.154111 -0.0998646 0)
(-0.14369 -0.111242 0)
(-0.131915 -0.120491 0)
(-0.118954 -0.127267 0)
(-0.105024 -0.131238 0)
(-0.0904022 -0.132099 0)
(-0.0754256 -0.129591 0)
(-0.0604924 -0.123518 0)
(-0.0460591 -0.113768 0)
(-0.0326337 -0.100331 0)
(-0.0207513 -0.0833127 0)
(-0.0109486 -0.062948 0)
(-0.003914 -0.0396005 0)
(-0.000597039 -0.0137911 0)
(-0.000624775 0.0159938 0)
(-0.00400316 0.045009 0)
(-0.0110718 0.0705535 0)
(-0.020821 0.0923109 0)
(-0.0325398 0.110121 0)
(-0.0457012 0.123941 0)
(-0.0598019 0.13383 0)
(-0.0743809 0.13993 0)
(-0.0890361 0.142447 0)
(-0.103425 0.141632 0)
(-0.117261 0.137763 0)
(-0.130311 0.131136 0)
(-0.142385 0.122049 0)
(-0.153335 0.110798 0)
(-0.163044 0.0976704 0)
(-0.171421 0.082944 0)
(-0.178395 0.066886 0)
(-0.18391 0.0497547 0)
(-0.187917 0.0318025 0)
(-0.190379 0.0132798 0)
(-0.19126 -0.00556037 0)
(-0.190529 -0.0244576 0)
(-0.188161 -0.0431393 0)
(-0.184137 -0.061316 0)
(-0.17845 -0.0786784 0)
(-0.171108 -0.0948948 0)
(-0.162142 -0.109611 0)
(-0.151614 -0.122453 0)
(-0.139623 -0.13303 0)
(-0.126319 -0.140946 0)
(-0.11191 -0.145812 0)
(-0.096669 -0.147259 0)
(-0.0809408 -0.144961 0)
(-0.0651447 -0.138657 0)
(-0.0497725 -0.128174 0)
(-0.0353823 -0.113451 0)
(-0.0225708 -0.0945613 0)
(-0.0119452 -0.0717226 0)
(-0.00428486 -0.0453049 0)
(-0.000657435 -0.0158613 0)
(-0.000674194 0.0180998 0)
(-0.00430104 0.050722 0)
(-0.0118629 0.0792453 0)
(-0.0222502 0.103356 0)
(-0.0346766 0.122918 0)
(-0.0485593 0.137932 0)
(-0.063349 0.148509 0)
(-0.0785497 0.154853 0)
(-0.0937376 0.157234 0)
(-0.10856 0.155964 0)
(-0.12273 0.151381 0)
(-0.13602 0.143832 0)
(-0.148257 0.133661 0)
(-0.159309 0.1212 0)
(-0.169077 0.106768 0)
(-0.177491 0.0906637 0)
(-0.184497 0.0731711 0)
(-0.190054 0.0545596 0)
(-0.194127 0.0350882 0)
(-0.196684 0.0150114 0)
(-0.197695 -0.00541563 0)
(-0.197126 -0.0259301 0)
(-0.194944 -0.0462557 0)
(-0.19112 -0.0660966 0)
(-0.185627 -0.085132 0)
(-0.178452 -0.103013 0)
(-0.169601 -0.119359 0)
(-0.159106 -0.133761 0)
(-0.147042 -0.145786 0)
(-0.133533 -0.15498 0)
(-0.118767 -0.160889 0)
(-0.103007 -0.163069 0)
(-0.0866008 -0.161116 0)
(-0.0699842 -0.154689 0)
(-0.0536837 -0.143537 0)
(-0.0383101 -0.127535 0)
(-0.0245291 -0.106707 0)
(-0.013028 -0.081247 0)
(-0.00469186 -0.0515256 0)
(-0.000724771 -0.0181292 0)
(-0.000728095 0.0203634 0)
(-0.0046216 0.0568401 0)
(-0.0127059 0.0885161 0)
(-0.0237573 0.115081 0)
(-0.0369025 0.136431 0)
(-0.0514955 0.152618 0)
(-0.0669358 0.163821 0)
(-0.0826914 0.170319 0)
(-0.0983176 0.172457 0)
(-0.113455 0.170623 0)
(-0.127822 0.165223 0)
(-0.141206 0.156663 0)
(-0.153453 0.145337 0)
(-0.164454 0.131617 0)
(-0.174137 0.115852 0)
(-0.182456 0.0983629 0)
(-0.189381 0.079448 0)
(-0.194889 0.059384 0)
(-0.198962 0.0384327 0)
(-0.201579 0.0168476 0)
(-0.202713 -0.00511898 0)
(-0.202332 -0.0272078 0)
(-0.200394 -0.0491446 0)
(-0.196857 -0.0706328 0)
(-0.191674 -0.0913456 0)
(-0.184806 -0.110921 0)
(-0.176229 -0.128957 0)
(-0.165942 -0.145011 0)
(-0.153983 -0.158603 0)
(-0.140442 -0.169222 0)
(-0.12548 -0.176338 0)
(-0.109339 -0.179426 0)
(-0.092361 -0.177986 0)
(-0.0749925 -0.171577 0)
(-0.0577929 -0.159855 0)
(-0.0414281 -0.142609 0)
(-0.0266398 -0.119797 0)
(-0.0142079 -0.0915748 0)
(-0.0051403 -0.0583074 0)
(-0.000800214 -0.0206152 0)
(-0.000787665 0.0227976 0)
(-0.00497064 0.0633915 0)
(-0.0136134 0.0983963 0)
(-0.0253596 0.127506 0)
(-0.0392347 0.150658 0)
(-0.0545193 0.16797 0)
(-0.0705565 0.179705 0)
(-0.0867769 0.186234 0)
(-0.102718 0.187997 0)
(-0.118019 0.185467 0)
(-0.13241 0.179131 0)
(-0.145702 0.169461 0)
(-0.157767 0.156907 0)
(-0.168529 0.141883 0)
(-0.17795 0.124769 0)
(-0.186013 0.105906 0)
(-0.192716 0.085603 0)
(-0.198063 0.0641404 0)
(-0.202053 0.0417778 0)
(-0.20468 0.0187623 0)
(-0.205924 -0.00466314 0)
(-0.205752 -0.0282491 0)
(-0.204118 -0.0517306 0)
(-0.200963 -0.0748168 0)
(-0.196221 -0.0971818 0)
(-0.189823 -0.118457 0)
(-0.181709 -0.138223 0)
(-0.171837 -0.156007 0)
(-0.160202 -0.171285 0)
(-0.146849 -0.183483 0)
(-0.131897 -0.191992 0)
(-0.115558 -0.19619 0)
(-0.0981547 -0.195465 0)
(-0.0801377 -0.18926 0)
(-0.0620938 -0.177109 0)
(-0.0447454 -0.158691 0)
(-0.0289178 -0.133877 0)
(-0.0154973 -0.102764 0)
(-0.00563652 -0.0657011 0)
(-0.0008852 -0.0233422 0)
(-0.000854557 0.0254192 0)
(-0.00535609 0.0704117 0)
(-0.0146024 0.108923 0)
(-0.0270804 0.140653 0)
(-0.0416951 0.165592 0)
(-0.0576421 0.183945 0)
(-0.0742021 0.196079 0)
(-0.0907682 0.202479 0)
(-0.106864 0.203698 0)
(-0.122135 0.200314 0)
(-0.136334 0.192904 0)
(-0.149302 0.182018 0)
(-0.160952 0.168162 0)
(-0.171247 0.151798 0)
(-0.180189 0.133333 0)
(-0.187801 0.113128 0)
(-0.194115 0.0914968 0)
(-0.199162 0.0687201 0)
(-0.202967 0.0450489 0)
(-0.205538 0.0207174 0)
(-0.206867 -0.00404745 0)
(-0.206922 -0.0290137 0)
(-0.205652 -0.0539331 0)
(-0.202984 -0.078529 0)
(-0.198828 -0.102485 0)
(-0.193085 -0.125432 0)
(-0.185653 -0.146941 0)
(-0.176443 -0.166517 0)
(-0.165395 -0.18359 0)
(-0.152498 -0.197526 0)
(-0.137818 -0.20763 0)
(-0.121518 -0.21317 0)
(-0.103889 -0.213408 0)
(-0.0853711 -0.207641 0)
(-0.0665722 -0.195256 0)
(-0.0482696 -0.175789 0)
(-0.0313795 -0.148991 0)
(-0.0169114 -0.114877 0)
(-0.00618841 -0.0737639 0)
(-0.000981565 -0.0263373 0)
(-0.000931094 0.0282495 0)
(-0.0057889 0.0779457 0)
(-0.0156961 0.120141 0)
(-0.0289505 0.154546 0)
(-0.0443123 0.181221 0)
(-0.0608778 0.200482 0)
(-0.0778594 0.212832 0)
(-0.0946139 0.218895 0)
(-0.110659 0.219362 0)
(-0.125656 0.214935 0)
(-0.139393 0.206296 0)
(-0.151756 0.194076 0)
(-0.162707 0.178849 0)
(-0.172261 0.161119 0)
(-0.180469 0.141321 0)
(-0.1874 0.11983 0)
(-0.193124 0.0969623 0)
(-0.197709 0.072991 0)
(-0.201204 0.0481527 0)
(-0.203638 0.0226613 0)
(-0.205015 -0.00327965 0)
(-0.205309 -0.0294638 0)
(-0.204462 -0.0556684 0)
(-0.20239 -0.0816399 0)
(-0.198978 -0.10708 0)
(-0.194095 -0.131631 0)
(-0.187593 -0.154864 0)
(-0.17933 -0.176264 0)
(-0.169182 -0.195228 0)
(-0.157069 -0.211058 0)
(-0.142984 -0.222972 0)
(-0.127026 -0.23012 0)
(-0.109435 -0.231613 0)
(-0.0906222 -0.226579 0)
(-0.0712031 -0.21422 0)
(-0.0520059 -0.193889 0)
(-0.0340444 -0.165176 0)
(-0.018469 -0.127979 0)
(-0.0068062 -0.0825611 0)
(-0.00109174 -0.029632 0)
(-0.00102058 0.0313167 0)
(-0.0062843 0.0860518 0)
(-0.0169259 0.132108 0)
(-0.0310106 0.169213 0)
(-0.0471225 0.197522 0)
(-0.0642414 0.217498 0)
(-0.0815064 0.229815 0)
(-0.0982426 0.235277 0)
(-0.113972 0.234738 0)
(-0.128391 0.229046 0)
(-0.141335 0.219001 0)
(-0.152751 0.205328 0)
(-0.162665 0.188664 0)
(-0.171157 0.169558 0)
(-0.178333 0.148469 0)
(-0.184316 0.12578 0)
(-0.189222 0.101804 0)
(-0.193155 0.0767978 0)
(-0.196195 0.050977 0)
(-0.198395 0.0245279 0)
(-0.199771 -0.00237754 0)
(-0.200305 -0.0295669 0)
(-0.199937 -0.0568518 0)
(-0.198571 -0.084012 0)
(-0.196072 -0.110778 0)
(-0.19227 -0.136816 0)
(-0.186975 -0.161704 0)
(-0.179984 -0.184926 0)
(-0.171098 -0.20585 0)
(-0.160157 -0.223722 0)
(-0.147065 -0.237671 0)
(-0.131831 -0.246719 0)
(-0.11462 -0.249813 0)
(-0.0957913 -0.245876 0)
(-0.0759473 -0.233883 0)
(-0.0559571 -0.212954 0)
(-0.0369356 -0.182464 0)
(-0.0201944 -0.142144 0)
(-0.0075035 -0.0921684 0)
(-0.00121904 -0.0332643 0)
(-0.00112779 0.0346584 0)
(-0.00686359 0.0948061 0)
(-0.0183347 0.144897 0)
(-0.0333145 0.184683 0)
(-0.0501702 0.214456 0)
(-0.0677462 0.234873 0)
(-0.0851057 0.246832 0)
(-0.101552 0.251359 0)
(-0.11663 0.249507 0)
(-0.130089 0.242294 0)
(-0.141837 0.230651 0)
(-0.151899 0.215402 0)
(-0.160382 0.197251 0)
(-0.167439 0.176783 0)
(-0.173245 0.154477 0)
(-0.17798 0.130715 0)
(-0.181811 0.105799 0)
(-0.18488 0.0799622 0)
(-0.187302 0.053391 0)
(-0.189153 0.026236 0)
(-0.190466 -0.00137029 0)
(-0.191232 -0.0292976 0)
(-0.191392 -0.0574014 0)
(-0.190841 -0.0855048 0)
(-0.189423 -0.11338 0)
(-0.186939 -0.140725 0)
(-0.18315 -0.167148 0)
(-0.177789 -0.192138 0)
(-0.17058 -0.215051 0)
(-0.161266 -0.235089 0)
(-0.149642 -0.251296 0)
(-0.135605 -0.262563 0)
(-0.119212 -0.267653 0)
(-0.100739 -0.265255 0)
(-0.0807447 -0.254066 0)
(-0.060121 -0.232908 0)
(-0.0400815 -0.20087 0)
(-0.02212 -0.157447 0)
(-0.00829896 -0.102675 0)
(-0.00136812 -0.0372805 0)
(-0.00125968 0.0383254 0)
(-0.0075568 0.104309 0)
(-0.0199806 0.158595 0)
(-0.0359313 0.200984 0)
(-0.0535069 0.231958 0)
(-0.071397 0.25244 0)
(-0.0885915 0.26362 0)
(-0.104391 0.266797 0)
(-0.118389 0.26327 0)
(-0.130419 0.254247 0)
(-0.140485 0.240805 0)
(-0.148716 0.223867 0)
(-0.155313 0.204198 0)
(-0.160516 0.182416 0)
(-0.164576 0.159007 0)
(-0.167734 0.134342 0)
(-0.17021 0.108701 0)
(-0.172188 0.0822873 0)
(-0.173813 0.0552477 0)
(-0.175188 0.0276904 0)
(-0.176363 -0.000299172 0)
(-0.177341 -0.0286408 0)
(-0.178067 -0.0572423 0)
(-0.178431 -0.0859799 0)
(-0.178262 -0.114678 0)
(-0.177333 -0.143086 0)
(-0.175361 -0.170851 0)
(-0.172019 -0.197492 0)
(-0.166945 -0.222368 0)
(-0.159777 -0.244656 0)
(-0.150183 -0.263328 0)
(-0.137918 -0.277146 0)
(-0.122897 -0.284678 0)
(-0.105267 -0.284345 0)
(-0.0855036 -0.274513 0)
(-0.0644866 -0.253626 0)
(-0.0435168 -0.22039 0)
(-0.0242889 -0.173971 0)
(-0.00921875 -0.114188 0)
(-0.00154571 -0.0417388 0)
(-0.00142663 0.0423878 0)
(-0.0084067 0.114694 0)
(-0.0219425 0.173316 0)
(-0.0389482 0.21814 0)
(-0.0571873 0.249926 0)
(-0.0751769 0.269964 0)
(-0.0918479 0.279823 0)
(-0.10653 0.28115 0)
(-0.118907 0.275527 0)
(-0.128931 0.264382 0)
(-0.13674 0.248941 0)
(-0.142587 0.230223 0)
(-0.146787 0.209044 0)
(-0.149678 0.186041 0)
(-0.151588 0.161691 0)
(-0.152824 0.136346 0)
(-0.153655 0.110249 0)
(-0.154304 0.0835632 0)
(-0.154948 0.0563892 0)
(-0.155712 0.028785 0)
(-0.156666 0.00078281 0)
(-0.157824 -0.0275936 0)
(-0.159139 -0.0563112 0)
(-0.160502 -0.0853089 0)
(-0.161735 -0.114475 0)
(-0.162589 -0.143622 0)
(-0.162748 -0.172458 0)
(-0.161825 -0.200549 0)
(-0.159379 -0.227287 0)
(-0.154933 -0.251846 0)
(-0.148016 -0.273149 0)
(-0.138212 -0.289844 0)
(-0.12525 -0.300301 0)
(-0.109097 -0.302649 0)
(-0.0900833 -0.294859 0)
(-0.0690259 -0.274905 0)
(-0.0472825 -0.240985 0)
(-0.0267602 -0.1918 0)
(-0.0103004 -0.126838 0)
(-0.00176188 -0.0467143 0)
(-0.00164453 0.046943 0)
(-0.009475 0.126139 0)
(-0.0243271 0.189195 0)
(-0.0424717 0.236153 0)
(-0.0612579 0.268191 0)
(-0.0790233 0.287106 0)
(-0.0946729 0.294966 0)
(-0.107619 0.293846 0)
(-0.117692 0.28566 0)
(-0.125014 0.27207 0)
(-0.129894 0.254452 0)
(-0.132736 0.233906 0)
(-0.133984 0.211282 0)
(-0.134076 0.187211 0)
(-0.133423 0.162149 0)
(-0.13239 0.136405 0)
(-0.13129 0.110178 0)
(-0.130381 0.0835786 0)
(-0.129864 0.0566544 0)
(-0.129884 0.0294075 0)
(-0.130527 0.0018126 0)
(-0.131822 -0.0261671 0)
(-0.133732 -0.054563 0)
(-0.136154 -0.0833827 0)
(-0.138914 -0.112588 0)
(-0.141755 -0.142069 0)
(-0.144336 -0.171611 0)
(-0.146227 -0.200855 0)
(-0.146913 -0.229252 0)
(-0.145809 -0.25601 0)
(-0.142292 -0.28004 0)
(-0.135755 -0.299903 0)
(-0.125692 -0.313786 0)
(-0.111826 -0.319509 0)
(-0.0942644 -0.314595 0)
(-0.0736781 -0.296436 0)
(-0.0514238 -0.262565 0)
(-0.029614 -0.211023 0)
(-0.011599 -0.14079 0)
(-0.00203215 -0.0523069 0)
(-0.00193852 0.0521293 0)
(-0.0108523 0.138881 0)
(-0.0272775 0.206389 0)
(-0.0466232 0.254986 0)
(-0.0657338 0.286479 0)
(-0.0827832 0.303381 0)
(-0.0967184 0.308407 0)
(-0.107117 0.304153 0)
(-0.114036 0.292908 0)
(-0.117829 0.27657 0)
(-0.119016 0.256651 0)
(-0.118177 0.234303 0)
(-0.115891 0.210376 0)
(-0.1127 0.185474 0)
(-0.109085 0.160001 0)
(-0.105461 0.134209 0)
(-0.102174 0.108237 0)
(-0.0995035 0.0821355 0)
(-0.0976669 0.0558911 0)
(-0.0968217 0.0294477 0)
(-0.0970674 0.00272068 0)
(-0.0984447 -0.0243884 0)
(-0.100933 -0.0519766 0)
(-0.104444 -0.0801234 0)
(-0.108815 -0.10887 0)
(-0.113798 -0.138196 0)
(-0.119046 -0.16798 0)
(-0.124106 -0.197964 0)
(-0.128411 -0.227694 0)
(-0.13128 -0.256454 0)
(-0.131944 -0.28319 0)
(-0.129584 -0.30643 0)
(-0.123425 -0.324217 0)
(-0.11287 -0.334068 0)
(-0.0976996 -0.333015 0)
(-0.0783199 -0.317753 0)
(-0.0559815 -0.284948 0)
(-0.0329587 -0.231716 0)
(-0.0131966 -0.156253 0)