/*--------------------------------*- C++ -*----------------------------------*\
| =========                 |                                                 |
| \\      /  F ield         | OpenFOAM: The Open Source CFD Toolbox           |
|  \\    /   O peration     | Version:  2206                                  |
|   \\  /    A nd           | Website:  www.openfoam.com                      |
|    \\/     M anipulation  |                                                 |
\*---------------------------------------------------------------------------*/
FoamFile
{
    version     2.0;
    format      ascii;
    arch        "LSB;label=32;scalar=64";
    class       volScalarField;
    location    "0.1";
    object      T;
}
// * * * * * * * * * * * * * * * * * * * * * * * * * * * * * * * * * * * * * //

dimensions      [0 0 0 1 0 0 0];

internalField   nonuniform List<scalar> 
100
(
349.75
349.25
348.75
348.25
347.75
347.25
346.75
346.25
345.75
345.25
344.75
344.25
343.75
343.25
342.75
342.25
341.75
341.25
340.75
340.25
339.75
339.25
338.75
338.25
337.75
337.25
336.75
336.25
335.75
335.25
334.75
334.25
333.75
333.25
332.75
332.25
331.75
331.25
330.75
330.25
329.75
329.25
328.75
328.25
327.75
327.25
326.75
326.25
325.75
325.25
324.75
324.25
323.75
323.25
322.75
322.25
321.75
321.25
320.75
320.25
319.75
319.25
318.75
318.25
317.75
317.25
316.75
316.25
315.75
315.25
314.75
314.25
313.75
313.25
312.75
312.25
311.75
311.25
310.75
310.25
309.75
309.25
308.75
308.25
307.75
307.25
306.75
306.25
305.75
305.25
304.75
304.25
303.75
303.25
302.75
302.25
301.75
301.25
300.75
300.25
)
;

boundaryField
{
    boundary1
    {
        type            fixedValue;
        value           uniform 350;
    }
    boundary2
    {
        type            fixedValue;
        value           uniform 300;
    }
    frontAndBack
    {
        type            empty;
    }
}


// ************************************************************************* //
