/*--------------------------------*- C++ -*----------------------------------*\
| =========                 |                                                 |
| \\      /  F ield         | OpenFOAM: The Open Source CFD Toolbox           |
|  \\    /   O peration     | Version:  2206                                  |
|   \\  /    A nd           | Website:  www.openfoam.com                      |
|    \\/     M anipulation  |                                                 |
\*---------------------------------------------------------------------------*/
FoamFile
{
    version     2.0;
    format      ascii;
    arch        "LSB;label=32;scalar=64";
    class       volScalarField;
    location    "0.5";
    object      p;
}
// * * * * * * * * * * * * * * * * * * * * * * * * * * * * * * * * * * * * * //

dimensions      [0 2 -2 0 0 0 0];

internalField   nonuniform List<scalar> 
1600
(
4.74623e-06
-0.00118409
-0.00391355
-0.00758697
-0.0115316
-0.0152517
-0.0183894
-0.0206923
-0.021993
-0.0221917
-0.0212428
-0.0191442
-0.0159295
-0.0116616
-0.00642774
-0.000335736
0.00648951
0.0139086
0.0217702
0.0299133
0.0381699
0.0463672
0.0543309
0.0618881
0.0688711
0.0751215
0.0804945
0.0848643
0.0881292
0.0902179
0.0910953
0.0907701
0.0893028
0.0868143
0.0834981
0.0796332
0.0755998
0.0719066
0.0692218
0.0681048
0.00119764
5.92202e-06
-0.0022105
-0.005062
-0.00810496
-0.010974
-0.0133846
-0.0151236
-0.0160408
-0.0160404
-0.0150724
-0.013125
-0.0102193
-0.00640329
-0.00174821
0.00365527
0.0097
0.016265
0.0232179
0.0304172
0.0377151
0.0449596
0.0519974
0.0586773
0.0648534
0.0703889
0.0751605
0.0790624
0.0820118
0.0839535
0.0848657
0.0847653
0.0837141
0.0818251
0.0792691
0.0762801
0.07316
0.0702845
0.0681019
0.0669902
0.00394127
0.00221351
-3.33437e-05
-0.00259275
-0.00522156
-0.00764991
-0.0096542
-0.0110628
-0.01175
-0.0116321
-0.0106632
-0.00882993
-0.00614772
-0.0026563
0.00158344
0.0064925
0.0119764
0.0179278
0.0242283
0.0307511
0.0373634
0.0439284
0.0503083
0.0563673
0.0619747
0.0670085
0.0713594
0.0749345
0.0776619
0.0794952
0.0804177
0.0804473
0.0796403
0.0780954
0.075957
0.0734159
0.0707124
0.0681279
0.0659213
0.0643033
0.00770435
0.00509355
0.00245226
-0.000176772
-0.00273187
-0.00501323
-0.00684662
-0.00810027
-0.00867578
-0.00850637
-0.00755542
-0.0058135
-0.00329545
-3.74729e-05
0.00390546
0.00846198
0.0135465
0.0190614
0.0248987
0.0309427
0.0370714
0.0431593
0.0490797
0.0547075
0.0599223
0.0646117
0.0686748
0.072026
0.0745988
0.0763495
0.0772613
0.0773476
0.0766547
0.0752642
0.0732931
0.0708934
0.0682576
0.0656007
0.0630097
0.0605414
0.0118926
0.0082538
0.00504462
0.00216389
-0.000493804
-0.00278473
-0.0045763
-0.00577388
-0.00630628
-0.00612514
-0.00520552
-0.00354448
-0.00115912
0.00191533
0.00562732
0.00991079
0.0146869
0.0198655
0.0253472
0.0310248
0.0367854
0.0425121
0.0480869
0.0533927
0.0583166
0.0627527
0.0666054
0.0697928
0.0722506
0.0739345
0.0748244
0.0749263
0.0742748
0.0729332
0.0709925
0.0685694
0.0658177
0.0629004
0.0597469
0.0562779
0.0160797
0.01137
0.00750019
0.00424996
0.00136743
-0.00104665
-0.00289331
-0.00411057
-0.00465264
-0.00448944
-0.00360864
-0.00201527
0.000269455
0.00320924
0.00675397
0.0108409
0.0153958
0.0203344
0.0255636
0.0309827
0.0364857
0.0419624
0.0473008
0.0523896
0.0571205
0.0613915
0.0651093
0.0681932
0.0705778
0.0722159
0.0730814
0.0731714
0.0725073
0.0711352
0.0691221
0.066555
0.0635574
0.0602548
0.0564387
0.0519185
0.0199564
0.0141807
0.00960383
0.00590816
0.00271608
9.68874e-05
-0.00187638
-0.00316952
-0.00375946
-0.00363336
-0.00279155
-0.0012478
0.000971333
0.00382702
0.00726891
0.0112358
0.0156564
0.0204504
0.025529
0.0307965
0.0361514
0.041488
0.0466985
0.0516748
0.0563109
0.0605059
0.0641666
0.0672106
0.0695691
0.0711896
0.0720384
0.0721022
0.0713893
0.0699291
0.0677679
0.0649683
0.0616324
0.0578599
0.0533258
0.0477499
0.0232895
0.0164721
0.0111704
0.00698578
0.00343156
0.000554525
-0.00159192
-0.00299679
-0.00365691
-0.00357525
-0.00276436
-0.00124694
0.000944378
0.00376723
0.00716975
0.0110909
0.0154609
0.0202016
0.0252272
0.0304451
0.0357566
0.0410588
0.0462458
0.0512108
0.0558479
0.0600554
0.0637377
0.0668084
0.0691933
0.0708327
0.0716838
0.0717221
0.0709427
0.0693597
0.0670014
0.063911
0.0601762
0.0558807
0.0505999
0.0439807
0.0258971
0.0180651
0.0120355
0.00733947
0.00339343
0.000228098
-0.00211786
-0.0036529
-0.00439118
-0.00434999
-0.00355342
-0.00203308
0.000172004
0.0030152
0.00644223
0.0103912
0.0147924
0.0195688
0.0246361
0.0299032
0.0352731
0.0406438
0.0459097
0.0509634
0.0556975
0.0600071
0.0637925
0.0669614
0.0694323
0.0711365
0.0720208
0.072049
0.0712029
0.0694821
0.0668999
0.0634835
0.0593121
0.0544606
0.0484171
0.0407661
0.0276286
0.0188039
0.0120493
0.00683217
0.00248015
-0.000987599
-0.00354359
-0.00521279
-0.00602465
-0.00600946
-0.0052022
-0.00364318
-0.00137808
0.00154176
0.00505897
0.00910984
0.013624
0.0185244
0.023727
0.0291412
0.0346702
0.0402116
0.0456588
0.0509022
0.0558312
0.0603361
0.0643112
0.0676566
0.0702815
0.072107
0.0730681
0.0731157
0.0722186
0.0703626
0.0675473
0.0637874
0.0591572
0.0537287
0.0469097
0.0382292
0.0283511
0.018547
0.0110712
0.00533073
0.000569235
-0.00320282
-0.00596667
-0.00776181
-0.00863148
-0.00861802
-0.00776678
-0.00612662
-0.00374998
-0.000693312
0.00298241
0.00721108
0.0119209
0.0170339
0.0224655
0.0281247
0.0339138
0.039729
0.0454615
0.0509981
0.0562236
0.0610223
0.0652803
0.0688886
0.0717457
0.0737605
0.0748549
0.0749661
0.0740488
0.0720758
0.0690336
0.0649264
0.0598264
0.0538062
0.0461973
0.0364761
0.0279391
0.0171593
0.00896428
0.00270257
-0.00246445
-0.00653324
-0.00949235
-0.0113946
-0.0122961
-0.0122508
-0.0113141
-0.00954336
-0.00699799
-0.00373981
0.000166189
0.00465101
0.00964087
0.0150564
0.0208118
0.026815
0.0329666
0.0391607
0.045285
0.0512223
0.0568511
0.0620482
0.0666905
0.070658
0.0738367
0.0761216
0.0774198
0.0776534
0.0767623
0.074705
0.0714558
0.0670089
0.0614364
0.0548134
0.0463958
0.0356077
0.026267
0.0145056
0.00559079
-0.00118781
-0.00675089
-0.0111012
-0.0142339
-0.0162147
-0.0171126
-0.0169928
-0.0159208
-0.0139628
-0.0111853
-0.00765589
-0.00344382
0.00137867
0.00673543
0.0125453
0.0187212
0.025169
0.0317877
0.0384685
0.0450952
0.0515452
0.0576903
0.0633985
0.0685359
0.07297
0.0765724
0.0792222
0.08081
0.0812406
0.0804374
0.0783438
0.0749206
0.0701522
0.0641111
0.0568764
0.0476256
0.0357293
0.0232041
0.0104462
0.000807526
-0.00648208
-0.0124272
-0.0170369
-0.0203132
-0.0223348
-0.0231839
-0.0229376
-0.021672
-0.0194623
-0.0163826
-0.0125065
-0.00790799
-0.00266261
0.00315093
0.00944959
0.0161446
0.0231403
0.0303333
0.0376119
0.0448558
0.0519365
0.058718
0.0650587
0.0708127
0.0758332
0.0799756
0.0831009
0.0850805
0.0857999
0.0851633
0.083097
0.0795467
0.0744855
0.0679863
0.0601322
0.050018
0.0369576
0.0186099
0.00483195
-0.00553777
-0.0133313
-0.0196402
-0.0244805
-0.0278615
-0.0298766
-0.0306218
-0.030187
-0.0286599
-0.0261256
-0.0226662
-0.0183618
-0.0132911
-0.00753336
-0.00116977
0.00571486
0.0130303
0.0206795
0.0285571
0.0365484
0.0445289
0.0523642
0.0599102
0.0670146
0.0735184
0.079259
0.0840734
0.0878021
0.0902945
0.0914135
0.0910411
0.0890833
0.0854676
0.0801541
0.0732145
0.0647355
0.053722
0.0394276
0.0123311
-0.00249884
-0.0136101
-0.0218991
-0.0285486
-0.033583
-0.0370208
-0.038971
-0.0395458
-0.0388495
-0.0369826
-0.0340409
-0.0301158
-0.0252941
-0.0196598
-0.0132957
-0.00628509
0.00128569
0.0093255
0.0177363
0.0264114
0.0352339
0.0440753
0.0527954
0.061242
0.0692516
0.0766512
0.0832607
0.0888965
0.093376
0.096523
0.0981741
0.0981849
0.0964367
0.0928353
0.0873236
0.0799701
0.0708635
0.0589103
0.0432983
0.00419776
-0.0117247
-0.0235912
-0.0323649
-0.039326
-0.0445092
-0.0479441
-0.0497585
-0.0500831
-0.049039
-0.0467413
-0.0432986
-0.038812
-0.0333761
-0.02708
-0.0200101
-0.0122517
-0.00389168
0.0049787
0.0142615
0.0238495
0.0336246
0.0434554
0.0531966
0.062688
0.0717549
0.0802095
0.0878528
0.0944786
0.0998778
0.103845
0.106186
0.106724
0.10531
0.101823
0.0961842
0.0884548
0.0787229
0.0657856
0.0487594
-0.0059797
-0.0230449
-0.0356832
-0.044928
-0.052164
-0.0574391
-0.0607973
-0.0623892
-0.0623674
-0.0608731
-0.0580389
-0.0539879
-0.0488326
-0.0426758
-0.0356125
-0.027732
-0.0191208
-0.0098657
-5.66904e-05
0.0102097
0.0208277
0.0316791
0.0426313
0.0535349
0.0642228
0.0745096
0.0841921
0.0930514
0.100856
0.107368
0.112348
0.115564
0.116802
0.115877
0.112631
0.106956
0.0989038
0.0885562
0.074588
0.0560376
-0.0184147
-0.0366846
-0.0501143
-0.0598119
-0.0672756
-0.0725706
-0.07576
-0.0770222
-0.0765372
-0.0744705
-0.0709757
-0.066193
-0.0602479
-0.0532527
-0.0453081
-0.036506
-0.0269332
-0.0166749
-0.00581814
0.00554408
0.0173092
0.0293614
0.0415688
0.0537801
0.0658226
0.0775013
0.088598
0.0988731
0.108069
0.115913
0.122127
0.126438
0.128585
0.128335
0.125488
0.119897
0.111593
0.10065
0.085603
0.0654044
-0.0333498
-0.0529006
-0.0671451
-0.0772701
-0.0848998
-0.0901222
-0.0930263
-0.0938256
-0.0927343
-0.0899478
-0.0856455
-0.0799878
-0.0731157
-0.0651515
-0.0562018
-0.0463606
-0.0357136
-0.0243423
-0.0123287
0.000240261
0.0132681
0.0266444
0.0402407
0.0539066
0.0674665
0.0807174
0.0934273
0.105336
0.116156
0.125581
0.133288
0.138951
0.142255
0.142911
0.140659
0.135304
0.126847
0.115344
0.0991712
0.0771855
-0.0510631
-0.0719904
-0.0870765
-0.0975935
-0.105307
-0.110337
-0.112806
-0.112975
-0.1111
-0.107415
-0.10213
-0.0954296
-0.0874733
-0.0783945
-0.0683052
-0.0573005
-0.0454631
-0.0328685
-0.0195906
-0.00570711
0.00869516
0.0235148
0.0386308
0.0538972
0.0691391
0.0841483
0.0986813
0.112458
0.125162
0.136447
0.145941
0.153259
0.158019
0.15986
0.158451
0.153528
0.145051
0.133044
0.115701
0.0917718
-0.0718785
-0.0943034
-0.110262
-0.12112
-0.128806
-0.133484
-0.135327
-0.134652
-0.131772
-0.126968
-0.120489
-0.11255
-0.103329
-0.0929729
-0.0815976
-0.0692981
-0.0561513
-0.0422239
-0.0275781
-0.012278
0.00360336
0.0199784
0.0367381
0.0537461
0.0708326
0.087789
0.104363
0.120258
0.135129
0.148586
0.160205
0.169532
0.176105
0.179474
0.179217
0.174981
0.166662
0.154237
0.135683
0.109634
-0.0961793
-0.120257
-0.137123
-0.148247
-0.155753
-0.159868
-0.160831
-0.159039
-0.154876
-0.148683
-0.140757
-0.131346
-0.120653
-0.108836
-0.0960159
-0.0822834
-0.0677072
-0.0523406
-0.0362294
-0.0194199
-0.00196546
0.0160654
0.0345818
0.0534629
0.0725502
0.0916406
0.110479
0.128755
0.146098
0.162076
0.176204
0.187952
0.196765
0.202084
0.203367
0.200145
0.192224
0.179507
0.159715
0.131343
-0.124428
-0.150361
-0.16817
-0.179449
-0.186563
-0.189828
-0.189578
-0.186316
-0.180518
-0.172602
-0.162921
-0.151765
-0.139362
-0.12588
-0.111443
-0.0961343
-0.0800093
-0.0631028
-0.0454392
-0.0270404
-0.00793435
0.0118363
0.0322057
0.053076
0.0743079
0.0957113
0.117036
0.137965
0.158105
0.176986
0.19406
0.208711
0.220274
0.228058
0.231373
0.229592
0.222392
0.209568
0.188523
0.157593
-0.157198
-0.185248
-0.204034
-0.215302
-0.221724
-0.223746
-0.221841
-0.21665
-0.208772
-0.198719
-0.186914
-0.173691
-0.159304
-0.143932
-0.127695
-0.110665
-0.092876
-0.0743394
-0.0550508
-0.0350012
-0.0141858
0.0073861
0.0296819
0.0526353
0.0761357
0.100016
0.124042
0.147898
0.171179
0.193378
0.213888
0.232001
0.246925
0.25781
0.263777
0.263994
0.257957
0.245293
0.223007
0.18924
-0.195213
-0.225727
-0.245512
-0.256513
-0.26181
-0.26205
-0.257897
-0.250182
-0.239661
-0.226962
-0.212589
-0.196925
-0.180247
-0.16274
-0.144512
-0.125616
-0.106058
-0.0858165
-0.064851
-0.0431134
-0.0205583
0.00284695
0.027112
0.0522124
0.0780771
0.104575
0.131499
0.158551
0.185325
0.21129
0.235783
0.258002
0.277016
0.291786
0.301198
0.304149
0.299878
0.287763
0.264293
0.227351
-0.239418
-0.272853
-0.293625
-0.303959
-0.307507
-0.305213
-0.298016
-0.287003
-0.27313
-0.257163
-0.239696
-0.221162
-0.201854
-0.181951
-0.161542
-0.140645
-0.119231
-0.0972338
-0.0745677
-0.0511369
-0.0268464
-0.00161272
0.024626
0.0518981
0.0801851
0.109406
0.139398
0.169898
0.200518
0.230721
0.259802
0.286868
0.31084
0.330464
0.344334
0.350997
0.349329
0.338338
0.313809
0.273281
-0.291083
-0.328035
-0.349705
-0.358744
-0.359625
-0.353745
-0.342436
-0.327123
-0.30901
-0.289025
-0.267854
-0.24597
-0.223668
-0.201106
-0.178334
-0.155325
-0.131995
-0.108225
-0.0838728
-0.058784
-0.0328057
-0.00579404
0.0223753
0.0517951
0.0825132
0.114515
0.147704
0.181874
0.216681
0.251607
0.285931
0.318686
0.348649
0.374323
0.393956
0.405641
0.407752
0.398742
0.373409
0.328782
-0.351964
-0.393208
-0.415524
-0.42226
-0.419114
-0.408171
-0.391315
-0.370414
-0.346967
-0.322077
-0.29651
-0.270758
-0.245093
-0.219623
-0.194338
-0.169141
-0.143881
-0.118367
-0.092391
-0.0657304
-0.0381644
-0.00947981
0.02052
0.0520041
0.0851013
0.119883
0.156339
0.19435
0.233651
0.273784
0.314047
0.353437
0.390604
0.423805
0.450885
0.469363
0.476924
0.471197
0.445545
0.396188
-0.424586
-0.471088
-0.493466
-0.496262
-0.487058
-0.468977
-0.444662
-0.416535
-0.386431
-0.355616
-0.324902
-0.294754
-0.265379
-0.236796
-0.208901
-0.181502
-0.154358
-0.127193
-0.0997181
-0.0716337
-0.0426426
-0.0124542
0.0192092
0.052604
0.0879541
0.125435
0.165151
0.207104
0.251148
0.296938
0.343853
0.390914
0.436697
0.479235
0.515932
0.543611
0.559032
0.558606
0.533546
0.47871
-0.512714
-0.565592
-0.586766
-0.582938
-0.56463
-0.536503
-0.502205
-0.464816
-0.426503
-0.388639
-0.35201
-0.316977
-0.283614
-0.251798
-0.221285
-0.191759
-0.162863
-0.13422
-0.105448
-0.0761609
-0.0459798
-0.01453
0.0185539
0.0536242
0.0910128
0.131018
0.173886
0.219775
0.268715
0.320539
0.374794
0.430623
0.486625
0.540688
0.589792
0.629956
0.65674
0.664793
0.642051
0.580948
-0.622221
-0.682489
-0.699829
-0.68494
-0.652959
-0.610745
-0.563199
-0.514089
-0.46583
-0.419765
-0.376515
-0.336223
-0.298731
-0.2637
-0.230696
-0.199239
-0.168833
-0.138985
-0.109207
-0.0790242
-0.0479694
-0.0155822
0.0185938
0.0550123
0.0941223
0.136362
0.182142
0.231821
0.285663
0.343763
0.405949
0.471632
0.539605
0.607778
0.672823
0.729934
0.773212
0.79483
0.77769
0.709816
-0.762725
-0.830458
-0.838591
-0.805299
-0.752836
-0.691019
-0.626123
-0.562467
-0.502458
-0.447149
-0.39677
-0.351069
-0.309528
-0.271507
-0.236322
-0.203289
-0.171754
-0.141089
-0.110702
-0.080022
-0.0484978
-0.0155846
0.0192633
0.056601
0.0969988
0.141044
0.189336
0.24247
0.301004
0.365395
0.435895
0.512383
0.59411
0.679319
0.76468
0.844738
0.912009
0.955391
0.950185
0.876305
-0.950916
-1.02277
-1.01079
-0.94699
-0.864071
-0.775352
-0.688221
-0.607038
-0.533665
-0.468413
-0.410785
-0.3599
-0.314727
-0.274224
-0.2374
-0.20334
-0.17121
-0.140251
-0.10976
-0.0790802
-0.0475815
-0.0146435
0.0203606
0.0580802
0.0992028
0.144467
0.194671
0.250677
0.313394
0.38374
0.462558
0.550449
0.6475
0.752801
0.863637
0.974493
1.0766
1.155
1.17407
1.09904
-1.2173
-1.27972
-1.22554
-1.11156
-0.98408
-0.859375
-0.744756
-0.643429
-0.555741
-0.480569
-0.416239
-0.360959
-0.313027
-0.270913
-0.233278
-0.198958
-0.166944
-0.136347
-0.106371
-0.0762843
-0.0453946
-0.0130213
0.0215274
0.0589792
0.100124
0.14584
0.197121
0.255104
0.321087
0.396534
0.48304
0.582226
0.695499
0.82355
0.965364
1.11672
1.26886
1.40351
1.47116
1.41136
-1.61786
-1.63098
-1.49156
-1.29673
-1.1059
-0.935006
-0.788313
-0.665546
-0.563984
-0.480141
-0.410642
-0.352517
-0.303268
-0.260833
-0.22352
-0.189933
-0.158909
-0.129458
-0.100715
-0.0718984
-0.0422769
-0.011134
0.0222619
0.0586912
0.0990179
0.144231
0.195492
0.254192
0.322016
0.401011
0.493647
0.602837
0.73185
0.883966
1.06154
1.26422
1.48651
1.71011
1.87243
1.87292
-2.25459
-2.1159
-1.81358
-1.49441
-1.21742
-0.990515
-0.809416
-0.666454
-0.553626
-0.464014
-0.392069
-0.333473
-0.284905
-0.243807
-0.208191
-0.176488
-0.147432
-0.119977
-0.0932268
-0.066387
-0.0387179
-0.0094983
0.0220114
0.0566083
0.0951903
0.138809
0.188738
0.246559
0.314282
0.394493
0.490557
0.606846
0.748978
0.923932
1.13976
1.40419
1.72091
2.07936
2.41787
2.58927
-3.35547
-2.78362
-2.17264
-1.67572
-1.29254
-1.00571
-0.794134
-0.637263
-0.519323
-0.42917
-0.358971
-0.303182
-0.257839
-0.220061
-0.187705
-0.159139
-0.133083
-0.108498
-0.0845107
-0.0603541
-0.0353197
-0.0087178
0.020161
0.0520868
0.0879379
0.128761
0.175852
0.230867
0.295988
0.374159
0.46944
0.58753
0.736507
0.927866
1.17794
1.50829
1.94084
2.49099
3.15842
3.79398
-5.5167
-3.66387
-2.43115
-1.71382
-1.2416
-0.921703
-0.704781
-0.553906
-0.445448
-0.365178
-0.304166
-0.256556
-0.218393
-0.186915
-0.160126
-0.136535
-0.114989
-0.094561
-0.0744766
-0.0540575
-0.032679
-0.00973324
0.0154058
0.0434197
0.0750893
0.111352
0.15338
0.202696
0.261343
0.332162
0.419234
0.528621
0.669606
0.856975
1.11529
1.48372
2.01563
2.80562
4.12658
6.0872
-9.19972
-4.52204
-2.30663
-1.42109
-0.958993
-0.682991
-0.512313
-0.400625
-0.322948
-0.266441
-0.223913
-0.190931
-0.164587
-0.142869
-0.124323
-0.10785
-0.0925901
-0.0778454
-0.0630254
-0.047609
-0.0311133
-0.0130671
0.00701452
0.0296573
0.0554599
0.0851352
0.119568
0.159895
0.207638
0.264908
0.334766
0.421877
0.53379
0.683794
0.89752
1.22416
1.75384
2.73369
5.0639
9.86191
)
;

boundaryField
{
    movingWall
    {
        type            zeroGradient;
    }
    fixedWalls
    {
        type            zeroGradient;
    }
    frontAndBack
    {
        type            empty;
    }
}


// ************************************************************************* //
