/*--------------------------------*- C++ -*----------------------------------*\
| =========                 |                                                 |
| \\      /  F ield         | OpenFOAM: The Open Source CFD Toolbox           |
|  \\    /   O peration     | Version:  2206                                  |
|   \\  /    A nd           | Website:  www.openfoam.com                      |
|    \\/     M anipulation  |                                                 |
\*---------------------------------------------------------------------------*/
FoamFile
{
    version     2.0;
    format      ascii;
    arch        "LSB;label=32;scalar=64";
    class       surfaceScalarField;
    location    "0.5";
    object      phi;
}
// * * * * * * * * * * * * * * * * * * * * * * * * * * * * * * * * * * * * * //

dimensions      [0 3 -1 0 0 0 0];

oriented        oriented;

internalField   nonuniform List<scalar> 
3120
(
2.53647e-09
-2.54709e-09
4.09717e-09
-1.56072e-09
2.25396e-09
1.84317e-09
-3.55377e-09
5.80768e-09
-1.31365e-08
9.58269e-09
-2.59855e-08
1.2849e-08
-4.14613e-08
1.54758e-08
-5.88875e-08
1.74262e-08
-7.75964e-08
1.87088e-08
-9.69511e-08
1.93547e-08
-1.16357e-07
1.94062e-08
-1.35269e-07
1.89117e-08
-1.53191e-07
1.79223e-08
-1.69682e-07
1.64908e-08
-1.84353e-07
1.46705e-08
-1.96868e-07
1.2515e-08
-2.06946e-07
1.00788e-08
-2.14363e-07
7.41671e-09
-2.18948e-07
4.58511e-09
-2.2059e-07
1.6418e-09
-2.19237e-07
-1.35335e-09
-2.14898e-07
-4.33824e-09
-2.0765e-07
-7.24843e-09
-1.97633e-07
-1.00173e-08
-1.85056e-07
-1.25765e-08
-1.702e-07
-1.48564e-08
-1.53412e-07
-1.67876e-08
-1.35111e-07
-1.83016e-08
-1.15778e-07
-1.93328e-08
-9.59576e-08
-1.98202e-08
-7.62481e-08
-1.97096e-08
-5.7292e-08
-1.89562e-08
-3.97639e-08
-1.75282e-08
-2.43515e-08
-1.54124e-08
-1.1727e-08
-1.26245e-08
-2.4961e-09
-9.23074e-09
2.89725e-09
-5.39328e-09
4.35795e-09
-1.46086e-09
2.56119e-09
1.79643e-09
2.56097e-09
1.61591e-09
-4.16303e-09
-1.17137e-09
1.22649e-09
-1.17161e-08
1.23878e-08
-3.1076e-08
2.51675e-08
-5.90498e-08
3.75565e-08
-9.46941e-08
4.84932e-08
-1.36659e-07
5.74411e-08
-1.83406e-07
6.41729e-08
-2.33334e-07
6.8637e-08
-2.84863e-07
7.08832e-08
-3.36477e-07
7.10207e-08
-3.86761e-07
6.91951e-08
-4.34411e-07
6.55733e-08
-4.78256e-07
6.03356e-08
-5.17256e-07
5.36707e-08
-5.50514e-07
4.5773e-08
-5.77277e-07
3.68417e-08
-5.96941e-07
2.70809e-08
-6.09056e-07
1.67001e-08
-6.1333e-07
5.91505e-09
-6.09632e-07
-5.05131e-09
-5.98001e-07
-1.59687e-08
-5.7865e-07
-2.65994e-08
-5.51968e-07
-3.66994e-08
-5.18525e-07
-4.60198e-08
-4.79071e-07
-5.43101e-08
-4.34537e-07
-6.1322e-08
-3.86024e-07
-6.68144e-08
-3.34797e-07
-7.05598e-08
-2.82265e-07
-7.23522e-08
-2.29959e-07
-7.20163e-08
-1.79495e-07
-6.94194e-08
-1.32536e-07
-6.44872e-08
-9.07216e-08
-5.72274e-08
-5.55784e-08
-4.7768e-08
-2.83836e-08
-3.64256e-08
-9.94798e-09
-2.38287e-08
-2.89829e-10
-1.11186e-08
1.85456e-09
-3.47588e-10
4.41525e-09
-1.66765e-09
-2.49542e-09
-1.21182e-08
1.16769e-08
-3.40935e-08
3.43631e-08
-6.84565e-08
5.95305e-08
-1.14794e-07
8.38938e-08
-1.7182e-07
1.05519e-07
-2.377e-07
1.23322e-07
-3.10299e-07
1.36772e-07
-3.87347e-07
1.45684e-07
-4.66558e-07
1.50095e-07
-5.45714e-07
1.50176e-07
-6.22711e-07
1.46193e-07
-6.95605e-07
1.38466e-07
-7.62626e-07
1.27357e-07
-8.22205e-07
1.1325e-07
-8.72982e-07
9.65492e-08
-9.13812e-07
7.76723e-08
-9.43782e-07
5.70505e-08
-9.6221e-07
3.51278e-08
-9.68657e-07
1.23622e-08
-9.62934e-07
-1.07739e-08
-9.4511e-07
-3.37932e-08
-9.15514e-07
-5.61947e-08
-8.74748e-07
-7.74658e-08
-8.23681e-07
-9.70869e-08
-7.63454e-07
-1.14537e-07
-6.95471e-07
-1.29305e-07
-6.21389e-07
-1.40896e-07
-5.43098e-07
-1.48852e-07
-4.62688e-07
-1.52762e-07
-3.82413e-07
-1.52291e-07
-3.04634e-07
-1.47199e-07
-2.31742e-07
-1.37379e-07
-1.66061e-07
-1.22908e-07
-1.09718e-07
-1.04112e-07
-6.44532e-08
-8.16902e-08
-3.13853e-08
-5.68967e-08
-1.06922e-08
-3.18116e-08
-1.2381e-09
-9.80128e-09
3.17704e-09
-5.56961e-09
3.07415e-09
-2.49813e-08
3.10885e-08
-5.96929e-08
6.90746e-08
-1.0988e-07
1.09718e-07
-1.74653e-07
1.48667e-07
-2.52304e-07
1.8317e-07
-3.40562e-07
2.11579e-07
-4.36807e-07
2.33017e-07
-5.38251e-07
2.47128e-07
-6.42063e-07
2.53907e-07
-7.45475e-07
2.53588e-07
-8.45844e-07
2.46562e-07
-9.4071e-07
2.33333e-07
-1.02783e-06
2.14477e-07
-1.1052e-06
1.90624e-07
-1.17109e-06
1.62439e-07
-1.22404e-06
1.3062e-07
-1.26288e-06
9.58854e-08
-1.28673e-06
5.89819e-08
-1.29505e-06
2.06783e-08
-1.28759e-06
-1.82325e-08
-1.26445e-06
-5.69337e-08
-1.22605e-06
-9.45875e-08
-1.17318e-06
-1.3034e-07
-1.10694e-06
-1.63326e-07
-1.02879e-06
-1.92687e-07
-9.40519e-07
-2.17577e-07
-8.44225e-07
-2.37191e-07
-7.42294e-07
-2.50783e-07
-6.37358e-07
-2.57698e-07
-5.3224e-07
-2.57409e-07
-4.29877e-07
-2.49561e-07
-3.33233e-07
-2.34024e-07
-2.4517e-07
-2.10971e-07
-1.68302e-07
-1.8098e-07
-1.04808e-07
-1.45185e-07
-5.62029e-08
-1.05502e-07
-2.3103e-08
-6.49116e-08
-4.98677e-09
-2.79173e-08
-1.80965e-09
-9.47006e-09
1.25442e-08
-3.81799e-08
5.97982e-08
-8.60885e-08
1.16983e-07
-1.5241e-07
1.76039e-07
-2.35574e-07
2.31831e-07
-3.33344e-07
2.8094e-07
-4.42981e-07
3.21215e-07
-5.61417e-07
3.51453e-07
-6.85415e-07
3.71127e-07
-8.11698e-07
3.8019e-07
-9.37049e-07
3.78939e-07
-1.05839e-06
3.67907e-07
-1.17286e-06
3.478e-07
-1.27783e-06
3.19442e-07
-1.37094e-06
2.83741e-07
-1.45017e-06
2.41669e-07
-1.5138e-06
1.94247e-07
-1.56045e-06
1.42536e-07
-1.58911e-06
8.76353e-08
-1.59911e-06
3.06804e-08
-1.59018e-06
-2.71582e-08
-1.56244e-06
-8.46765e-08
-1.51639e-06
-1.40641e-07
-1.45293e-06
-1.93798e-07
-1.37337e-06
-2.4288e-07
-1.27943e-06
-2.8663e-07
-1.17319e-06
-3.23819e-07
-1.0571e-06
-3.53277e-07
-9.33955e-07
-3.73929e-07
-8.06813e-07
-3.8484e-07
-6.78958e-07
-3.85265e-07
-5.53802e-07
-3.74716e-07
-4.34787e-07
-3.53039e-07
-3.25247e-07
-3.2051e-07
-2.28264e-07
-2.77963e-07
-1.46487e-07
-2.26962e-07
-8.19532e-08
-1.70035e-07
-3.59197e-08
-1.10945e-07
-8.75698e-09
-5.508e-08
-1.05665e-08
-1.31647e-08
2.57089e-08
-5.10355e-08
9.76689e-08
-1.1211e-07
1.78057e-07
-1.94529e-07
2.58458e-07
-2.95917e-07
3.3322e-07
-4.1341e-07
3.98432e-07
-5.43747e-07
4.51552e-07
-6.83405e-07
4.91111e-07
-8.28723e-07
5.16445e-07
-9.76025e-07
5.27492e-07
-1.12171e-06
5.24627e-07
-1.26235e-06
5.08549e-07
-1.39474e-06
4.80187e-07
-1.51594e-06
4.4064e-07
-1.62333e-06
3.91129e-07
-1.71462e-06
3.32965e-07
-1.78791e-06
2.6753e-07
-1.84164e-06
1.96268e-07
-1.87468e-06
1.20673e-07
-1.88628e-06
4.22888e-08
-1.87615e-06
-3.72917e-08
-1.84439e-06
-1.16432e-07
-1.79158e-06
-1.93459e-07
-1.71871e-06
-2.66668e-07
-1.62724e-06
-3.34348e-07
-1.51907e-06
-3.94795e-07
-1.39654e-06
-4.46351e-07
-1.26238e-06
-4.87439e-07
-1.11969e-06
-5.16615e-07
-9.71908e-07
-5.32626e-07
-8.22692e-07
-5.34481e-07
-6.75874e-07
-5.21534e-07
-5.35331e-07
-4.93583e-07
-4.04857e-07
-4.50984e-07
-2.88019e-07
-3.948e-07
-1.88004e-07
-3.26977e-07
-1.07474e-07
-2.50565e-07
-4.84591e-08
-1.6996e-07
-1.23379e-08
-9.12013e-08
-2.29044e-08
-1.66136e-08
4.23224e-08
-6.33217e-08
1.44377e-07
-1.37294e-07
2.5203e-07
-2.35586e-07
3.5675e-07
-3.54954e-07
4.52588e-07
-4.91834e-07
5.35312e-07
-6.42392e-07
6.02111e-07
-8.02621e-07
6.51339e-07
-9.68435e-07
6.82259e-07
-1.13578e-06
6.94835e-07
-1.30071e-06
6.89561e-07
-1.45949e-06
6.67328e-07
-1.60863e-06
6.29321e-07
-1.74493e-06
5.76943e-07
-1.86555e-06
5.11753e-07
-1.96802e-06
4.35436e-07
-2.05026e-06
3.49766e-07
-2.11059e-06
2.56596e-07
-2.14776e-06
1.57849e-07
-2.16098e-06
5.55103e-08
-2.1499e-06
-4.83726e-08
-2.11464e-06
-1.51698e-07
-2.05578e-06
-2.52314e-07
-1.97441e-06
-3.48037e-07
-1.8721e-06
-4.36666e-07
-1.75087e-06
-5.16018e-07
-1.61326e-06
-5.83962e-07
-1.46223e-06
-6.38476e-07
-1.30114e-06
-6.77704e-07
-1.13373e-06
-7.00037e-07
-9.6401e-07
-7.04197e-07
-7.96204e-07
-6.89341e-07
-6.3461e-07
-6.55177e-07
-4.83495e-07
-6.02099e-07
-3.46956e-07
-5.3134e-07
-2.28782e-07
-4.45151e-07
-1.32341e-07
-3.47006e-07
-6.05095e-08
-2.41791e-07
-1.56912e-08
-1.3602e-07
-3.85956e-08
-1.98455e-08
6.21678e-08
-7.50424e-08
1.99574e-07
-1.61577e-07
3.38564e-07
-2.75452e-07
4.70625e-07
-4.12534e-07
5.89669e-07
-5.68515e-07
6.91293e-07
-7.38945e-07
7.72542e-07
-9.193e-07
8.31693e-07
-1.10506e-06
8.68016e-07
-1.29179e-06
8.81565e-07
-1.47523e-06
8.73001e-07
-1.65135e-06
8.43451e-07
-1.81642e-06
7.94394e-07
-1.96704e-06
7.27566e-07
-2.10019e-06
6.449e-07
-2.21323e-06
5.48475e-07
-2.30395e-06
4.40485e-07
-2.37057e-06
3.23218e-07
-2.41177e-06
1.99048e-07
-2.42668e-06
7.04235e-08
-2.41493e-06
-6.01302e-08
-2.3766e-06
-1.90021e-07
-2.31232e-06
-3.16598e-07
-2.22319e-06
-4.37163e-07
-2.11086e-06
-5.49002e-07
-1.97746e-06
-6.49414e-07
-1.82566e-06
-7.35763e-07
-1.6586e-06
-8.05538e-07
-1.47987e-06
-8.56429e-07
-1.29349e-06
-8.86423e-07
-1.10378e-06
-8.93903e-07
-9.15348e-07
-8.77775e-07
-7.32925e-07
-8.376e-07
-5.61282e-07
-7.73742e-07
-4.05091e-07
-6.87531e-07
-2.68804e-07
-5.81438e-07
-1.56556e-07
-4.59254e-07
-7.2105e-08
-3.26242e-07
-1.88535e-08
-1.89271e-07
-5.74491e-08
-2.29129e-08
8.50806e-08
-8.63032e-08
2.62964e-07
-1.85092e-07
4.37352e-07
-3.14278e-07
5.99811e-07
-4.68834e-07
7.44226e-07
-6.43685e-07
8.66144e-07
-8.33731e-07
9.62587e-07
-1.0339e-06
1.03186e-06
-1.23922e-06
1.07334e-06
-1.44488e-06
1.08723e-06
-1.64631e-06
1.07443e-06
-1.83922e-06
1.03636e-06
-2.01966e-06
9.74834e-07
-2.18406e-06
8.91958e-07
-2.32922e-06
7.90068e-07
-2.45241e-06
6.71666e-07
-2.55131e-06
5.39385e-07
-2.62406e-06
3.95967e-07
-2.66927e-06
2.44251e-07
-2.68601e-06
8.71659e-08
-2.67386e-06
-7.22744e-08
-2.63291e-06
-2.30973e-07
-2.56375e-06
-3.85759e-07
-2.46751e-06
-5.33406e-07
-2.34585e-06
-6.70659e-07
-2.201e-06
-7.94271e-07
-2.03569e-06
-9.01064e-07
-1.85323e-06
-9.87997e-07
-1.65741e-06
-1.05226e-06
-1.45246e-06
-1.09137e-06
-1.24304e-06
-1.10332e-06
-1.03413e-06
-1.08669e-06
-8.3092e-07
-1.04081e-06
-6.38711e-07
-9.6595e-07
-4.62803e-07
-8.63439e-07
-3.08365e-07
-7.35875e-07
-1.80343e-07
-5.87277e-07
-8.33942e-08
-4.23191e-07
-2.18893e-08
-2.50776e-07
-7.93384e-08
-2.58716e-08
1.10952e-07
-9.72455e-08
3.34338e-07
-2.0806e-07
5.48167e-07
-3.52349e-07
7.441e-07
-5.24198e-07
9.16074e-07
-7.17746e-07
1.05969e-06
-9.27219e-07
1.17206e-06
-1.14698e-06
1.25162e-06
-1.37159e-06
1.29794e-06
-1.59585e-06
1.31149e-06
-1.81488e-06
1.29346e-06
-2.02415e-06
1.24563e-06
-2.21952e-06
1.1702e-06
-2.39726e-06
1.0697e-06
-2.55407e-06
9.4688e-07
-2.68711e-06
8.04705e-07
-2.79399e-06
6.46261e-07
-2.87278e-06
4.74757e-07
-2.92203e-06
2.93506e-07
-2.94079e-06
1.05921e-07
-2.92857e-06
-8.44893e-08
-2.88543e-06
-2.74116e-07
-2.81193e-06
-4.59264e-07
-2.70917e-06
-6.36163e-07
-2.57883e-06
-8.00998e-07
-2.42315e-06
-9.49953e-07
-2.24494e-06
-1.07927e-06
-2.0476e-06
-1.18534e-06
-1.83508e-06
-1.26478e-06
-1.61186e-06
-1.3146e-06
-1.38288e-06
-1.3323e-06
-1.15351e-06
-1.31606e-06
-9.29414e-07
-1.26491e-06
-7.16479e-07
-1.17889e-06
-5.20668e-07
-1.05925e-06
-3.47918e-07
-9.08625e-07
-2.04027e-07
-7.31168e-07
-9.45708e-08
-5.32647e-07
-2.48695e-08
-3.20477e-07
-1.04208e-07
-2.87736e-08
1.39726e-07
-1.08016e-07
4.1358e-07
-2.30728e-07
6.70878e-07
-3.9e-07
9.03372e-07
-5.79031e-07
1.10511e-06
-7.91163e-07
1.27182e-06
-1.01993e-06
1.40083e-06
-1.2591e-06
1.4908e-06
-1.50276e-06
1.5416e-06
-1.74533e-06
1.55406e-06
-1.98162e-06
1.52976e-06
-2.20688e-06
1.47089e-06
-2.41679e-06
1.38011e-06
-2.6075e-06
1.2604e-06
-2.77562e-06
1.115e-06
-2.91824e-06
9.4733e-07
-3.03293e-06
7.60949e-07
-3.11772e-06
5.59541e-07
-3.1711e-06
3.46895e-07
-3.19209e-06
1.26904e-07
-3.18015e-06
-9.6428e-08
-3.13528e-06
-3.18988e-07
-3.05799e-06
-5.36555e-07
-2.94934e-06
-7.4481e-07
-2.81097e-06
-9.39368e-07
-2.64511e-06
-1.11582e-06
-2.45459e-06
-1.26979e-06
-2.24287e-06
-1.39705e-06
-2.01404e-06
-1.49361e-06
-1.77278e-06
-1.55586e-06
-1.52433e-06
-1.58074e-06
-1.27445e-06
-1.56594e-06
-1.0293e-06
-1.51006e-06
-7.95368e-07
-1.41282e-06
-5.79345e-07
-1.27527e-06
-3.87981e-07
-1.09999e-06
-2.27971e-07
-8.91178e-07
-1.05841e-07
-6.54777e-07
-2.78636e-08
-3.98454e-07
-1.32071e-07
-3.16652e-08
1.71391e-07
-1.18753e-07
5.00667e-07
-2.53337e-07
8.05462e-07
-4.27567e-07
1.0776e-06
-6.33746e-07
1.31128e-06
-8.644e-07
1.50248e-06
-1.11235e-06
1.64877e-06
-1.37077e-06
1.74922e-06
-1.63324e-06
1.80407e-06
-1.8938e-06
1.81462e-06
-2.14699e-06
1.78294e-06
-2.38782e-06
1.71172e-06
-2.61184e-06
1.60413e-06
-2.8151e-06
1.46367e-06
-2.99417e-06
1.29407e-06
-3.1461e-06
1.09925e-06
-3.26842e-06
8.83267e-07
-3.35914e-06
6.50265e-07
-3.41675e-06
4.04505e-07
-3.4402e-06
1.50353e-07
-3.42891e-06
-1.07711e-07
-3.38282e-06
-3.65079e-07
-3.30236e-06
-6.17014e-07
-3.18852e-06
-8.58655e-07
-3.04285e-06
-1.08504e-06
-2.86752e-06
-1.29114e-06
-2.66536e-06
-1.47195e-06
-2.43985e-06
-1.62257e-06
-2.19515e-06
-1.7383e-06
-1.93614e-06
-1.81487e-06
-1.66833e-06
-1.84855e-06
-1.39787e-06
-1.8364e-06
-1.13144e-06
-1.77649e-06
-8.76171e-07
-1.66808e-06
-6.39512e-07
-1.51193e-06
-4.29088e-07
-1.31041e-06
-2.52545e-07
-1.06772e-06
-1.17408e-07
-7.89915e-07
-3.09366e-08
-4.84925e-07
-1.63008e-07
-3.45866e-08
2.05977e-07
-1.29581e-07
5.95661e-07
-2.76112e-07
9.51993e-07
-4.65366e-07
1.26686e-06
-6.88725e-07
1.53464e-06
-9.37876e-07
1.75163e-06
-1.2049e-06
1.9158e-06
-1.48236e-06
2.02668e-06
-1.76335e-06
2.08506e-06
-2.04152e-06
2.09279e-06
-2.31113e-06
2.05255e-06
-2.56702e-06
1.96761e-06
-2.80461e-06
1.84173e-06
-3.01991e-06
1.67897e-06
-3.20946e-06
1.48362e-06
-3.37031e-06
1.2601e-06
-3.5e-06
1.01296e-06
-3.59656e-06
7.46824e-07
-3.65846e-06
4.664e-07
-3.68461e-06
1.76505e-07
-3.6744e-06
-1.17926e-07
-3.62766e-06
-4.11817e-07
-3.54474e-06
-6.99937e-07
-3.4265e-06
-9.76892e-07
-3.27439e-06
-1.23715e-06
-3.09048e-06
-1.47506e-06
-2.8775e-06
-1.68493e-06
-2.63892e-06
-1.86115e-06
-2.37895e-06
-1.99827e-06
-2.1026e-06
-2.09122e-06
-1.81563e-06
-2.13552e-06
-1.52457e-06
-2.12746e-06
-1.23664e-06
-2.06442e-06
-9.59638e-07
-1.94509e-06
-7.01824e-07
-1.76975e-06
-4.71757e-07
-1.54048e-06
-2.78107e-07
-1.26137e-06
-1.29464e-07
-9.38557e-07
-3.41491e-08
-5.8024e-07
-1.97157e-07
-3.75732e-08
2.43551e-07
-1.40615e-07
6.98703e-07
-2.99259e-07
1.11064e-06
-5.03683e-07
1.47128e-06
-7.44309e-07
1.77527e-06
-1.01195e-06
2.01927e-06
-1.29792e-06
2.20177e-06
-1.59416e-06
2.32291e-06
-1.89325e-06
2.38416e-06
-2.1885e-06
2.38804e-06
-2.4739e-06
2.33794e-06
-2.74414e-06
2.23785e-06
-2.99458e-06
2.09217e-06
-3.22121e-06
1.9056e-06
-3.42059e-06
1.683e-06
-3.58983e-06
1.42934e-06
-3.72652e-06
1.14965e-06
-3.82871e-06
8.4902e-07
-3.8949e-06
5.32586e-07
-3.92398e-06
2.05584e-07
-3.91527e-06
-1.26633e-07
-3.86853e-06
-4.58559e-07
-3.78397e-06
-7.84499e-07
-3.6623e-06
-1.09856e-06
-3.50481e-06
-1.39464e-06
-3.3134e-06
-1.66647e-06
-3.09067e-06
-1.90766e-06
-2.83999e-06
-2.11183e-06
-2.56557e-06
-2.27269e-06
-2.27248e-06
-2.38431e-06
-1.96672e-06
-2.44128e-06
-1.65517e-06
-2.43901e-06
-1.34558e-06
-2.37401e-06
-1.04644e-06
-2.24422e-06
-7.66888e-07
-2.0493e-06
-5.16478e-07
-1.79089e-06
-3.04995e-07
-1.47285e-06
-1.42194e-07
-1.10136e-06
-3.75573e-08
-6.84876e-07
-2.34714e-07
-4.0657e-08
2.84207e-07
-1.51957e-07
8.10003e-07
-3.22963e-07
1.28164e-06
-5.42775e-07
1.69109e-06
-8.00791e-07
2.03328e-06
-1.0869e-06
2.30537e-06
-1.39162e-06
2.5065e-06
-1.70625e-06
2.63754e-06
-2.02288e-06
2.70078e-06
-2.33446e-06
2.69962e-06
-2.63477e-06
2.63825e-06
-2.91839e-06
2.52148e-06
-3.18068e-06
2.35446e-06
-3.41767e-06
2.14258e-06
-3.62599e-06
1.89133e-06
-3.80287e-06
1.60622e-06
-3.94599e-06
1.29277e-06
-4.05348e-06
9.56509e-07
-4.12386e-06
6.02975e-07
-4.15605e-06
2.37774e-07
-4.14931e-06
-1.33374e-07
-4.10329e-06
-5.04581e-07
-4.01805e-06
-8.69741e-07
-3.89411e-06
-1.2225e-06
-3.73254e-06
-1.55621e-06
-3.535e-06
-1.864e-06
-3.30389e-06
-2.13877e-06
-3.04241e-06
-2.37331e-06
-2.75466e-06
-2.56044e-06
-2.44574e-06
-2.69323e-06
-2.12181e-06
-2.76522e-06
-1.79006e-06
-2.77075e-06
-1.45877e-06
-2.7053e-06
-1.13715e-06
-2.56584e-06
-8.35245e-07
-2.3512e-06
-5.63704e-07
-2.06243e-06
-3.33528e-07
-1.70303e-06
-1.5577e-07
-1.27912e-06
-4.12149e-08
-7.99431e-07
-2.75929e-07
-4.38684e-08
3.28076e-07
-1.63706e-07
9.29841e-07
-3.47401e-07
1.46534e-06
-5.82878e-07
1.92657e-06
-8.58426e-07
2.30883e-06
-1.16294e-06
2.60989e-06
-1.48612e-06
2.82968e-06
-1.81858e-06
2.97e-06
-2.15193e-06
3.03414e-06
-2.47882e-06
3.0265e-06
-2.79284e-06
2.95227e-06
-3.08854e-06
2.81718e-06
-3.36133e-06
2.62725e-06
-3.60734e-06
2.3886e-06
-3.82339e-06
2.10738e-06
-4.00685e-06
1.78968e-06
-4.15557e-06
1.44149e-06
-4.26781e-06
1.06875e-06
-4.34218e-06
6.77342e-07
-4.37759e-06
2.73191e-07
-4.37328e-06
-1.37682e-07
-4.32879e-06
-5.49079e-07
-4.24398e-06
-9.54546e-07
-4.11916e-06
-1.34732e-06
-3.95509e-06
-1.72028e-06
-3.75315e-06
-2.06594e-06
-3.51543e-06
-2.37649e-06
-3.24485e-06
-2.64389e-06
-2.94533e-06
-2.85996e-06
-2.62189e-06
-3.01667e-06
-2.28074e-06
-3.10637e-06
-1.92938e-06
-3.12211e-06
-1.57656e-06
-3.05813e-06
-1.23222e-06
-2.91018e-06
-9.07371e-07
-2.67605e-06
-6.1385e-07
-2.35595e-06
-3.64009e-07
-1.95287e-06
-1.70361e-07
-1.47276e-06
-4.51741e-08
-9.24618e-07
-3.21103e-07
-4.72391e-08
3.75315e-07
-1.75965e-07
1.05857e-06
-3.72752e-07
1.66212e-06
-6.24221e-07
2.17804e-06
-9.1744e-07
2.60205e-06
-1.24023e-06
2.93268e-06
-1.58141e-06
3.17085e-06
-1.9309e-06
3.3195e-06
-2.27987e-06
3.38311e-06
-2.62065e-06
3.36728e-06
-2.94677e-06
3.27839e-06
-3.2528e-06
3.12321e-06
-3.53427e-06
2.90872e-06
-3.78755e-06
2.64187e-06
-4.00969e-06
2.32951e-06
-4.1983e-06
1.9783e-06
-4.35149e-06
1.59468e-06
-4.46768e-06
1.18494e-06
-4.54562e-06
7.55282e-07
-4.58428e-06
3.11852e-07
-4.58286e-06
-1.39106e-07
-4.54077e-06
-5.9117e-07
-4.45769e-06
-1.03763e-06
-4.33362e-06
-1.47138e-06
-4.169e-06
-1.8849e-06
-3.9648e-06
-2.27014e-06
-3.7227e-06
-2.6186e-06
-3.44524e-06
-2.92134e-06
-3.13603e-06
-3.16918e-06
-2.79987e-06
-3.35283e-06
-2.44296e-06
-3.46328e-06
-2.07296e-06
-3.49211e-06
-1.69907e-06
-3.43202e-06
-1.33196e-06
-3.27729e-06
-9.83662e-07
-3.02435e-06
-6.67297e-07
-2.67232e-06
-3.9673e-07
-2.22344e-06
-1.86133e-07
-1.68336e-06
-4.94874e-08
-1.06126e-06
-3.70591e-07
-5.08049e-08
4.2612e-07
-1.88845e-07
1.19661e-06
-3.9921e-07
1.87249e-06
-6.67044e-07
2.44587e-06
-9.7805e-07
2.91306e-06
-1.31888e-06
3.27351e-06
-1.67738e-06
3.52936e-06
-2.04281e-06
3.68493e-06
-2.40587e-06
3.74616e-06
-2.75869e-06
3.7201e-06
-3.09476e-06
3.61446e-06
-3.40881e-06
3.43726e-06
-3.69661e-06
3.19652e-06
-3.95485e-06
2.90011e-06
-4.18093e-06
2.55559e-06
-4.37283e-06
2.17019e-06
-4.52894e-06
1.75079e-06
-4.64797e-06
1.30398e-06
-4.72885e-06
8.36157e-07
-4.77063e-06
3.53636e-07
-4.77251e-06
-1.3723e-07
-4.73377e-06
-6.29903e-07
-4.65388e-06
-1.11752e-06
-4.5325e-06
-1.59276e-06
-4.36965e-06
-2.04776e-06
-4.1658e-06
-2.47399e-06
-3.92212e-06
-2.86228e-06
-3.64062e-06
-3.20284e-06
-3.32443e-06
-3.48536e-06
-2.97801e-06
-3.69925e-06
-2.60737e-06
-3.83392e-06
-2.22024e-06
-3.87925e-06
-1.82616e-06
-3.82609e-06
-1.43653e-06
-3.66692e-06
-1.06444e-06
-3.39645e-06
-7.24395e-07
-3.01236e-06
-4.31977e-07
-2.51586e-06
-2.03256e-07
-1.91208e-06
-5.42104e-08
-1.21031e-06
-4.24801e-07
-5.46093e-08
4.80729e-07
-2.02485e-07
1.34448e-06
-4.27005e-07
2.09701e-06
-7.11619e-07
2.73049e-06
-1.04049e-06
3.24192e-06
-1.39894e-06
3.63196e-06
-1.77383e-06
3.90424e-06
-2.15368e-06
4.06479e-06
-2.52881e-06
4.12129e-06
-2.89121e-06
4.0825e-06
-3.23446e-06
3.95772e-06
-3.55356e-06
3.75635e-06
-3.84467e-06
3.48763e-06
-4.10491e-06
3.16036e-06
-4.33219e-06
2.78287e-06
-4.52494e-06
2.36294e-06
-4.68198e-06
1.90782e-06
-4.80235e-06
1.42435e-06
-4.88524e-06
9.19043e-07
-4.92984e-06
3.98241e-07
-4.93537e-06
-1.31707e-07
-4.90099e-06
-6.64276e-07
-4.82593e-06
-1.19258e-06
-4.70947e-06
-1.70922e-06
-4.55113e-06
-2.2061e-06
-4.3508e-06
-2.67431e-06
-4.10898e-06
-3.1041e-06
-3.827e-06
-3.48482e-06
-3.50733e-06
-3.80503e-06
-3.15389e-06
-4.05269e-06
-2.77231e-06
-4.2155e-06
-2.37022e-06
-4.28134e-06
-1.95741e-06
-4.2389e-06
-1.54592e-06
-4.07841e-06
-1.14992e-06
-3.79245e-06
-7.85471e-07
-3.37681e-06
-4.70041e-07
-2.83129e-06
-2.21911e-07
-2.16021e-06
-5.94038e-08
-1.37282e-06
-4.84205e-07
-5.87087e-08
5.39438e-07
-2.17058e-07
1.50283e-06
-4.56426e-07
2.33638e-06
-7.58285e-07
3.03235e-06
-1.10501e-06
3.58865e-06
-1.48048e-06
4.00743e-06
-1.87043e-06
4.29419e-06
-2.2627e-06
4.45705e-06
-2.64724e-06
4.50583e-06
-3.01604e-06
4.4513e-06
-3.36292e-06
4.3046e-06
-3.6833e-06
4.07673e-06
-3.97389e-06
3.77822e-06
-4.23244e-06
3.41891e-06
-4.45747e-06
3.0079e-06
-4.64801e-06
2.55348e-06
-4.80343e-06
2.06323e-06
-4.9232e-06
1.54413e-06
-5.00683e-06
1.00267e-06
-5.05373e-06
4.45137e-07
-5.06314e-06
-1.22292e-07
-5.03416e-06
-6.93256e-07
-4.96573e-06
-1.26101e-06
-4.85673e-06
-1.81822e-06
-4.70611e-06
-2.35672e-06
-4.51306e-06
-2.86736e-06
-4.27726e-06
-3.3399e-06
-3.99919e-06
-3.76289e-06
-3.68045e-06
-4.12377e-06
-3.32417e-06
-4.40897e-06
-2.93538e-06
-4.60429e-06
-2.52138e-06
-4.69534e-06
-2.09203e-06
-4.66825e-06
-1.6599e-06
-4.51053e-06
-1.24027e-06
-4.21208e-06
-8.50832e-07
-3.76625e-06
-5.11233e-07
-3.17088e-06
-2.423e-07
-2.42915e-06
-6.51376e-08
-1.54998e-06
-5.49342e-07
-6.31785e-08
6.02616e-07
-2.32796e-07
1.67245e-06
-4.8785e-07
2.59143e-06
-8.07472e-07
3.35197e-06
-1.17197e-06
3.95315e-06
-1.56354e-06
4.399e-06
-1.96676e-06
4.69741e-06
-2.36877e-06
4.85906e-06
-2.75928e-06
4.89634e-06
-3.13043e-06
4.82245e-06
-3.47645e-06
4.65063e-06
-3.7934e-06
4.39368e-06
-4.07873e-06
4.06355e-06
-4.33101e-06
3.67119e-06
-4.54955e-06
3.22644e-06
-4.73413e-06
2.73806e-06
-4.88475e-06
2.21386e-06
-5.00147e-06
1.66084e-06
-5.08419e-06
1.08539e-06
-5.13257e-06
4.93522e-07
-5.14598e-06
-1.08887e-07
-5.12341e-06
-7.1582e-07
-5.06357e-06
-1.32086e-06
-4.96487e-06
-1.91692e-06
-4.82564e-06
-2.49595e-06
-4.64425e-06
-3.04875e-06
-4.41944e-06
-3.56471e-06
-4.15062e-06
-4.03172e-06
-3.83828e-06
-4.43611e-06
-3.48447e-06
-4.76277e-06
-3.09334e-06
-4.99543e-06
-2.67155e-06
-5.11713e-06
-2.22878e-06
-5.11102e-06
-1.778e-06
-4.96132e-06
-1.33551e-06
-4.65457e-06
-9.2078e-07
-4.18097e-06
-5.55894e-07
-3.53577e-06
-2.64661e-07
-2.72038e-06
-7.14958e-08
-1.74314e-06
-6.20838e-07
-6.81223e-08
6.70738e-07
-2.50011e-07
1.85434e-06
-5.21783e-07
2.8632e-06
-8.59749e-07
3.68993e-06
-1.24177e-06
4.33517e-06
-1.64816e-06
4.80539e-06
-2.06223e-06
5.11148e-06
-2.47049e-06
5.26732e-06
-2.86256e-06
5.28841e-06
-3.23092e-06
5.19081e-06
-3.57049e-06
4.9902e-06
-3.8782e-06
4.70138e-06
-4.15249e-06
4.33785e-06
-4.39295e-06
3.91165e-06
-4.59986e-06
3.43335e-06
-4.77393e-06
2.91212e-06
-4.91594e-06
2.35587e-06
-5.02659e-06
1.77149e-06
-5.10629e-06
1.16509e-06
-5.15504e-06
5.42276e-07
-5.17235e-06
-9.15785e-08
-5.15718e-06
-7.30991e-07
-5.10797e-06
-1.37007e-06
-5.02269e-06
-2.0022e-06
-4.89897e-06
-2.61967e-06
-4.7343e-06
-3.21342e-06
-4.52629e-06
-3.77272e-06
-4.27308e-06
-4.28493e-06
-3.9738e-06
-4.7354e-06
-3.6291e-06
-5.10747e-06
-3.24185e-06
-5.38268e-06
-2.81773e-06
-5.54124e-06
-2.3659e-06
-5.56285e-06
-1.89942e-06
-5.4278e-06
-1.43555e-06
-5.11843e-06
-9.95618e-07
-4.62091e-06
-6.04423e-07
-3.92697e-06
-2.89281e-07
-3.03552e-06
-7.85835e-08
-1.95384e-06
-6.99422e-07
-7.36832e-08
7.44422e-07
-2.69132e-07
2.04979e-06
-5.58902e-07
3.15297e-06
-9.15858e-07
4.04689e-06
-1.31495e-06
4.73426e-06
-1.73434e-06
5.22479e-06
-2.15603e-06
5.53317e-06
-2.566e-06
5.67728e-06
-2.954e-06
5.67642e-06
-3.31316e-06
5.54997e-06
-3.63939e-06
5.31642e-06
-3.93078e-06
4.99277e-06
-4.18707e-06
4.59414e-06
-4.40909e-06
4.13367e-06
-4.59831e-06
3.62257e-06
-4.75648e-06
3.0703e-06
-4.88534e-06
2.48473e-06
-4.98634e-06
1.87248e-06
-5.06046e-06
1.23921e-06
-5.10811e-06
5.89926e-07
-5.129e-06
-7.06877e-08
-5.1221e-06
-7.3789e-07
-5.08563e-06
-1.40654e-06
-5.0171e-06
-2.07072e-06
-4.91344e-06
-2.72333e-06
-4.77115e-06
-3.35571e-06
-4.58662e-06
-3.95725e-06
-4.3565e-06
-4.51504e-06
-4.07826e-06
-5.01364e-06
-3.75081e-06
-5.43492e-06
-3.3753e-06
-5.75819e-06
-2.95594e-06
-5.9606e-06
-2.50089e-06
-6.0179e-06
-2.02298e-06
-5.90571e-06
-1.54017e-06
-5.60124e-06
-1.07566e-06
-5.08543e-06
-6.57302e-07
-4.34532e-06
-3.16525e-07
-3.3763e-06
-8.65372e-08
-2.18383e-06
-7.85959e-07
-8.00615e-08
8.24483e-07
-2.90744e-07
2.26047e-06
-6.00118e-07
3.46235e-06
-9.76767e-07
4.42354e-06
-1.39215e-06
5.14965e-06
-1.82201e-06
5.65464e-06
-2.247e-06
5.95817e-06
-2.65279e-06
6.08308e-06
-3.02961e-06
6.05324e-06
-3.37161e-06
5.89196e-06
-3.67608e-06
5.62089e-06
-3.94268e-06
5.25937e-06
-4.17272e-06
4.82418e-06
-4.36855e-06
4.3295e-06
-4.53303e-06
3.78705e-06
-4.66913e-06
3.2064e-06
-4.77961e-06
2.59521e-06
-4.86677e-06
1.95965e-06
-4.93227e-06
1.30471e-06
-4.97697e-06
6.34629e-07
-5.00086e-06
-4.68024e-08
-5.00295e-06
-7.35796e-07
-4.9813e-06
-1.42819e-06
-4.933e-06
-2.11902e-06
-4.85427e-06
-2.80206e-06
-4.7406e-06
-3.46938e-06
-4.58705e-06
-4.1108e-06
-4.38863e-06
-4.71347e-06
-4.14084e-06
-5.26142e-06
-3.84045e-06
-5.7353e-06
-3.48641e-06
-6.11224e-06
-3.08086e-06
-6.36615e-06
-2.63037e-06
-6.46839e-06
-2.14695e-06
-6.38914e-06
-1.64891e-06
-6.09928e-06
-1.16123e-06
-5.57311e-06
-7.15131e-07
-4.79142e-06
-3.46871e-07
-3.74456e-06
-9.55392e-08
-2.43516e-06
-8.81498e-07
-8.75387e-08
9.12022e-07
-3.15653e-07
2.48858e-06
-6.46643e-07
3.79334e-06
-1.04371e-06
4.82061e-06
-1.4741e-06
5.58004e-06
-1.91085e-06
6.09139e-06
-2.3334e-06
6.38071e-06
-2.72741e-06
6.47709e-06
-3.08407e-06
6.40991e-06
-3.39911e-06
6.207e-06
-3.6717e-06
5.89348e-06
-3.90348e-06
5.49115e-06
-4.09769e-06
5.01839e-06
-4.25845e-06
4.49026e-06
-4.3902e-06
3.9188e-06
-4.49725e-06
3.31345e-06
-4.58349e-06
2.68145e-06
-4.65213e-06
2.02829e-06
-4.70553e-06
1.35812e-06
-4.74509e-06
6.7418e-07
-4.77108e-06
-2.08041e-08
-4.78268e-06
-7.24204e-07
-4.77781e-06
-1.43306e-06
-4.75322e-06
-2.14361e-06
-4.70449e-06
-2.8508e-06
-4.62611e-06
-3.54776e-06
-4.51177e-06
-4.22513e-06
-4.3547e-06
-4.87054e-06
-4.14822e-06
-5.46791e-06
-3.88654e-06
-5.99698e-06
-3.56582e-06
-6.43296e-06
-3.18548e-06
-6.74648e-06
-2.74968e-06
-6.9042e-06
-2.26883e-06
-6.86998e-06
-1.76099e-06
-6.60711e-06
-1.25266e-06
-6.08144e-06
-7.78677e-07
-5.2654e-06
-3.80959e-07
-4.14228e-06
-1.05841e-07
-2.71028e-06
-9.87339e-07
-9.65145e-08
1.00854e-06
-3.44969e-07
2.73704e-06
-7.00084e-07
4.14845e-06
-1.1182e-06
5.23872e-06
-1.56152e-06
6.02336e-06
-2.00013e-06
6.53e-06
-2.4125e-06
6.79309e-06
-2.78491e-06
6.8495e-06
-3.1102e-06
6.73519e-06
-3.38634e-06
6.48314e-06
-3.615e-06
6.12214e-06
-3.80029e-06
5.67645e-06
-3.94775e-06
5.16585e-06
-4.06351e-06
4.60601e-06
-4.15372e-06
4.00901e-06
-4.22413e-06
3.38386e-06
-4.27979e-06
2.7371e-06
-4.32482e-06
2.07332e-06
-4.36232e-06
1.39562e-06
-4.3942e-06
7.06062e-07
-4.42113e-06
6.12653e-09
-4.44245e-06
-7.02888e-07
-4.45609e-06
-1.41942e-06
-4.45855e-06
-2.14115e-06
-4.44486e-06
-2.86449e-06
-4.40865e-06
-3.58396e-06
-4.34228e-06
-4.2915e-06
-4.23714e-06
-4.97568e-06
-4.08418e-06
-5.62087e-06
-3.87471e-06
-6.20645e-06
-3.60154e-06
-6.70612e-06
-3.26053e-06
-7.0875e-06
-2.85243e-06
-7.3123e-06
-2.38502e-06
-7.33739e-06
-1.87514e-06
-7.11699e-06
-1.35026e-06
-6.60632e-06
-8.48931e-07
-5.76673e-06
-4.19666e-07
-4.57154e-06
-1.17796e-07
-3.01215e-06
-1.10513e-06
-1.07563e-07
1.1161e-06
-3.80226e-07
3.0097e-06
-7.62541e-07
4.53077e-06
-1.20203e-06
5.67821e-06
-1.65487e-06
6.4762e-06
-2.08818e-06
6.9633e-06
-2.48002e-06
7.18494e-06
-2.81817e-06
7.18764e-06
-3.0981e-06
7.01512e-06
-3.32093e-06
6.70597e-06
-3.49157e-06
6.29277e-06
-3.6171e-06
5.80198e-06
-3.70569e-06
5.25444e-06
-3.76566e-06
4.66599e-06
-3.80497e-06
4.04831e-06
-3.83078e-06
3.40967e-06
-3.84926e-06
2.75558e-06
-3.86542e-06
2.08948e-06
-3.88302e-06
1.41322e-06
-3.9045e-06
7.2754e-07
-3.93091e-06
3.25362e-08
-3.96184e-06
-6.71955e-07
-3.99534e-06
-1.38592e-06
-4.02781e-06
-2.10867e-06
-4.05395e-06
-2.83836e-06
-4.06666e-06
-3.57125e-06
-4.05717e-06
-4.301e-06
-4.01512e-06
-5.01772e-06
-3.92906e-06
-5.70693e-06
-3.7871e-06
-6.34841e-06
-3.57818e-06
-6.91505e-06
-3.2937e-06
-7.37199e-06
-2.92982e-06
-7.67618e-06
-2.49027e-06
-7.77694e-06
-1.98927e-06
-7.61799e-06
-1.45422e-06
-7.14137e-06
-9.27166e-07
-6.29378e-06
-4.64212e-07
-5.0345e-06
-1.31918e-07
-3.34444e-06
-1.23705e-06
-1.21527e-07
1.23763e-06
-4.23553e-07
3.31173e-06
-8.36712e-07
4.94393e-06
-1.29713e-06
6.13864e-06
-1.75399e-06
6.93305e-06
-2.1717e-06
7.38101e-06
-2.52904e-06
7.54228e-06
-2.81665e-06
7.47525e-06
-3.03398e-06
7.23245e-06
-3.18641e-06
6.85841e-06
-3.28285e-06
6.38921e-06
-3.3339e-06
5.85304e-06
-3.3506e-06
5.27114e-06
-3.34355e-06
4.65894e-06
-3.32245e-06
4.02721e-06
-3.29577e-06
3.38298e-06
-3.27064e-06
2.73046e-06
-3.2528e-06
2.07165e-06
-3.24659e-06
1.407e-06
-3.25488e-06
7.35831e-07
-3.27911e-06
5.67646e-08
-3.31917e-06
-6.31887e-07
-3.37336e-06
-1.33173e-06
-3.43818e-06
-2.04386e-06
-3.50823e-06
-2.7683e-06
-3.57605e-06
-3.50342e-06
-3.63201e-06
-4.24504e-06
-3.6643e-06
-4.98543e-06
-3.65918e-06
-5.71206e-06
-3.60153e-06
-6.40605e-06
-3.47597e-06
-7.04061e-06
-3.26858e-06
-7.57937e-06
-2.96959e-06
-7.97517e-06
-2.57682e-06
-8.16971e-06
-2.09988e-06
-8.09493e-06
-1.56435e-06
-7.6769e-06
-1.01499e-06
-6.84314e-06
-5.16315e-07
-5.53317e-06
-1.48971e-07
-3.71179e-06
-1.38602e-06
-1.39665e-07
1.37729e-06
-4.7792e-07
3.64998e-06
-9.25965e-07
5.39197e-06
-1.40524e-06
6.61791e-06
-1.85715e-06
7.38496e-06
-2.24444e-06
7.76829e-06
-2.54845e-06
7.84629e-06
-2.76475e-06
7.69155e-06
-2.89849e-06
7.3662e-06
-2.96062e-06
6.92054e-06
-2.96487e-06
6.39345e-06
-2.92573e-06
5.8139e-06
-2.85721e-06
5.20262e-06
-2.7721e-06
4.57383e-06
-2.68158e-06
3.93669e-06
-2.59517e-06
3.29657e-06
-2.52068e-06
2.65597e-06
-2.46433e-06
2.0153e-06
-2.43081e-06
1.37348e-06
-2.42331e-06
7.2834e-07
-2.44361e-06
7.706e-08
-2.49194e-06
-5.83554e-07
-2.56696e-06
-1.25672e-06
-2.66552e-06
-1.9453e-06
-2.78248e-06
-2.65134e-06
-2.91041e-06
-3.37549e-06
-3.03934e-06
-4.11612e-06
-3.15649e-06
-4.86828e-06
-3.24628e-06
-5.62226e-06
-3.29057e-06
-6.36175e-06
-3.26952e-06
-7.06166e-06
-3.16321e-06
-7.68568e-06
-2.95447e-06
-8.18391e-06
-2.63304e-06
-8.49114e-06
-2.20111e-06
-8.52686e-06
-1.67967e-06
-8.19834e-06
-1.11433e-06
-7.40848e-06
-5.7841e-07
-6.06909e-06
-1.70121e-07
-4.12007e-06
-1.55614e-06
-1.63919e-07
1.54121e-06
-5.47476e-07
4.03354e-06
-1.03428e-06
5.87878e-06
-1.52712e-06
7.11075e-06
-1.95957e-06
7.81741e-06
-2.29503e-06
8.10375e-06
-2.52049e-06