/*--------------------------------*- C++ -*----------------------------------*\
| =========                 |                                                 |
| \\      /  F ield         | OpenFOAM: The Open Source CFD Toolbox           |
|  \\    /   O peration     | Version:  2206                                  |
|   \\  /    A nd           | Website:  www.openfoam.com                      |
|    \\/     M anipulation  |                                                 |
\*---------------------------------------------------------------------------*/
FoamFile
{
    version     2.0;
    format      ascii;
    arch        "LSB;label=32;scalar=64";
    class       volScalarField;
    location    "0.5";
    object      T;
}
// * * * * * * * * * * * * * * * * * * * * * * * * * * * * * * * * * * * * * //

dimensions      [0 0 0 1 0 0 0];

internalField   nonuniform List<scalar> 
1600
(
300.007
300.022
300.038
300.055
300.073
300.093
300.116
300.14
300.168
300.197
300.229
300.263
300.299
300.336
300.373
300.41
300.446
300.48
300.511
300.539
300.563
300.582
300.596
300.604
300.606
300.603
300.593
300.576
300.554
300.526
300.493
300.454
300.411
300.364
300.313
300.26
300.204
300.147
300.088
300.03
300.022
300.068
300.115
300.166
300.221
300.282
300.35
300.425
300.507
300.598
300.695
300.798
300.907
301.019
301.132
301.244
301.352
301.455
301.55
301.634
301.707
301.764
301.806
301.831
301.838
301.827
301.796
301.747
301.679
301.594
301.492
301.375
301.244
301.101
300.947
300.786
300.617
300.444
300.268
300.089
300.038
300.115
300.195
300.281
300.375
300.478
300.593
300.72
300.861
301.015
301.18
301.357
301.542
301.733
301.925
302.116
302.301
302.476
302.638
302.781
302.903
303.001
303.073
303.115
303.126
303.106
303.053
302.969
302.853
302.708
302.534
302.335
302.112
301.868
301.607
301.333
301.047
300.753
300.454
300.152
300.054
300.164
300.279
300.402
300.537
300.685
300.85
301.034
301.236
301.458
301.698
301.953
302.22
302.495
302.774
303.049
303.316
303.569
303.802
304.009
304.185
304.326
304.427
304.487
304.503
304.473
304.397
304.275
304.108
303.897
303.646
303.358
303.036
302.686
302.31
301.914
301.503
301.081
300.651
300.218
300.072
300.217
300.369
300.532
300.71
300.907
301.127
301.371
301.641
301.937
302.257
302.598
302.955
303.323
303.695
304.063
304.42
304.757
305.067
305.343
305.578
305.765
305.901
305.98
306.001
305.96
305.858
305.694
305.471
305.189
304.854
304.469
304.039
303.571
303.071
302.544
301.997
301.435
300.865
300.289
300.09
300.274
300.466
300.672
300.897
301.148
301.427
301.737
302.082
302.459
302.867
303.303
303.759
304.229
304.704
305.174
305.63
306.06
306.456
306.808
307.107
307.346
307.518
307.619
307.645
307.593
307.462
307.253
306.967
306.608
306.179
305.688
305.14
304.542
303.904
303.233
302.537
301.823
301.098
300.367
300.111
300.335
300.571
300.824
301.101
301.409
301.754
302.138
302.564
303.031
303.537
304.077
304.643
305.226
305.814
306.397
306.962
307.495
307.985
308.421
308.791
309.087
309.3
309.426
309.458
309.393
309.232
308.972
308.618
308.173
307.642
307.033
306.354
305.614
304.824
303.993
303.132
302.25
301.355
300.452
300.133
300.403
300.685
300.989
301.324
301.695
302.111
302.576
303.092
303.659
304.273
304.928
305.615
306.322
307.037
307.744
308.428
309.074
309.668
310.196
310.644
311.003
311.262
311.414
311.454
311.377
311.181
310.868
310.44
309.9
309.257
308.518
307.695
306.797
305.839
304.832
303.789
302.721
301.638
300.547
300.157
300.476
300.81
301.17
301.566
302.007
302.502
303.055
303.671
304.347
305.08
305.862
306.682
307.526
308.378
309.221
310.036
310.806
311.513
312.141
312.674
313.102
313.411
313.593
313.641
313.551
313.32
312.949
312.44
311.799
311.034
310.154
309.172
308.102
306.959
305.758
304.514
303.241
301.95
300.651
300.183
300.555
300.945
301.366
301.829
302.347
302.928
303.578
304.302
305.099
305.962
306.883
307.848
308.841
309.843
310.833
311.789
312.692
313.521
314.257
314.882
315.383
315.746
315.961
316.02
315.917
315.649
315.217
314.623
313.873
312.976
311.943
310.79
309.532
308.187
306.773
305.309
303.811
302.293
300.765
300.212
300.641
301.092
301.578
302.115
302.715
303.39
304.147
304.99
305.917
306.922
307.993
309.116
310.269
311.431
312.578
313.686
314.73
315.688
316.538
317.261
317.84
318.26
318.51
318.581
318.466
318.16
317.665
316.981
316.117
315.081
313.886
312.549
311.088
309.525
307.881
306.177
304.434
302.667
300.89
300.242
300.734
301.25
301.808
302.424
303.114
303.89
304.762
305.733
306.801
307.959
309.192
310.482
311.807
313.139
314.452
315.718
316.91
318.002
318.97
319.794
320.454
320.935
321.223
321.307
321.181
320.838
320.279
319.505
318.523
317.342
315.976
314.445
312.769
310.973
309.08
307.118
305.109
303.073
301.025
300.275
300.834
301.421
302.055
302.756
303.542
304.428
305.424
306.532
307.752
309.072
310.477
311.944
313.448
314.957
316.442
317.871
319.214
320.444
321.533
322.459
323.202
323.745
324.073
324.173
324.038
323.661
323.04
322.176
321.074
319.746
318.205
316.472
314.57
312.526
310.37
308.13
305.836
303.51
301.17
300.31
300.941
301.603
302.319
303.112
304.001
305.004
306.131
307.386
308.766
310.258
311.842
313.494
315.182
316.873
318.533
320.126
321.621
322.987
324.196
325.224
326.051
326.657
327.026
327.146
327.007
326.6
325.921
324.971
323.753
322.278
320.559
318.619
316.482
314.18
311.745
309.212
306.613
303.977
301.326
300.348
301.055
301.797
302.6
303.49
304.489
305.616
306.882
308.292
309.839
311.509
313.279
315.119
316.994
318.868
320.701
322.456
324.099
325.598
326.923
328.052
328.96
329.63
330.044
330.188
330.051
329.621
328.894
327.865
326.538
324.92
323.026
320.877
318.5
315.93
313.204
310.361
307.441
304.475
301.492
300.388
301.175
302.002
302.898
303.89
305.005
306.262
307.674
309.245
310.965
312.818
314.776
316.805
318.866
320.918
322.918
324.829
326.613
328.237
329.673
330.896
331.885
332.619
333.082
333.257
333.13
332.69
331.925
330.83
329.405
327.654
325.59
323.234
320.616
317.771
314.743
311.577
308.317
305.003
301.668
300.43
301.302
302.219
303.211
304.311
305.546
306.94
308.503
310.238
312.135
314.172
316.317
318.532
320.772
322.994
325.153
327.207
329.12
330.86
332.398
333.71
334.775
335.575
336.091
336.306
336.203
335.767
334.982
333.839
332.332
330.462
328.24
325.683
322.824
319.701
316.362
312.858
309.242
305.561
301.854
300.474
301.435
302.445
303.538
304.75
306.112
307.645
309.363
311.266
313.34
315.558
317.885
320.277
322.686
325.065
327.366
329.549
331.576
333.417
335.045
336.439
337.579
338.447
339.023
339.29
339.227
338.815
338.033
336.864
335.298
333.329
330.963
328.217
325.122
321.718
318.06
314.206
310.217
306.15
302.051
300.52
301.574
302.681
303.879
305.207
306.697
308.374
310.249
312.318
314.565
316.959
319.459
322.015
324.576
327.093
329.517
331.808
333.931
335.857
337.564
339.032
340.243
341.182
341.828
342.162
342.159
341.795
341.043
339.878
338.281
336.239
333.752
330.832
327.508
323.825
319.842
315.625
311.246
306.772
302.258
300.567
301.718
302.925
304.232
305.678
307.3
309.121
311.151
313.384
315.798
318.356
321.013
323.715
326.408
329.039
331.562
333.938
336.134
338.128
339.899
341.432
342.713
343.727
344.455
344.874
344.956
344.669
343.98
342.854
341.261
339.179
336.598
333.524
329.985
326.027
321.712
317.12
312.332
307.429
302.478
300.616
301.866
303.176
304.594
306.161
307.915
309.879
312.061
314.45
317.02
319.728
322.522
325.346
328.143
330.861
333.455
335.889
338.135
340.176
341.997
343.588
344.938
346.033
346.855
347.38
347.574
347.399
346.811
345.765
344.218
342.135
339.494
336.294
332.557
328.329
323.681
318.7
313.484
308.127
302.711
300.666
302.017
303.433
304.963
306.652
308.538
310.642
312.969
315.503
318.213
321.049
323.956
326.874
329.744
332.517
335.15
337.613
339.886
341.954
343.811
345.451
346.868
348.051
348.982
349.635
349.971
349.944
349.501
348.581
347.128
345.091
342.433
339.141
335.229
330.743
325.758
320.375
314.708
308.87
302.959
300.717
302.171
303.694
305.338
307.148
309.162
311.4
313.862
316.527
319.356
322.295
325.284
328.262
331.171
333.964
336.604
339.068
341.34
343.415
345.294
346.976
348.46
349.738
350.793
351.596
352.105
352.266
352.012
351.271
349.967
348.03
345.405
342.062
338.006
333.277
327.957
322.158
316.016
309.665
303.225
300.769
302.327
303.958
305.715
307.644
309.782
312.146
314.728
317.504
320.426
323.438
326.475
329.476
332.386
335.163
337.777
340.211
342.459
344.523
346.411
348.128
349.679
351.058
352.25
353.225
353.937
354.324
354.308
353.8
352.704
350.929
348.397
345.056
340.893
335.944
330.292
324.066
317.421
310.521
303.511
300.821
302.485
304.224
306.092
308.137
310.391
312.867
315.553
318.414
321.4
324.448
327.494
330.479
333.353
336.078
338.634
341.012
343.214
345.251
347.136
348.883
350.5
351.985
353.326
354.492
355.434
356.083
356.351
356.131
355.308
353.763
351.391
348.113
343.895
338.756
332.782
326.115
318.938
311.448
303.82
300.874
302.642
304.489
306.466
308.621
310.982
313.554
316.319
319.237
322.251
325.297
328.313
331.242
334.041
336.682
339.151
341.45
343.589
345.585
347.46
349.231
350.913
352.507
354.005
355.375
356.569
357.512
358.105
358.228
357.742
356.501
354.366
351.224
347.01
341.724
335.445
328.328
320.586
312.457
304.158
300.926
302.8
304.752
306.835
309.092
311.544
314.193
317.01
319.951
322.955
325.958
328.902
331.736
334.427
336.955
339.316
341.52
343.584
345.532
347.391
349.184
350.93
352.635
354.291
355.874
357.333
358.592
359.545
360.058
359.971
359.108
357.293
354.372
350.237
344.86
338.302
330.73
322.389
313.566
304.529
300.978
302.957
305.012
307.195
309.543
312.071
314.771
317.609
320.534
323.487
326.406
329.239
331.946
334.502
336.897
339.137
341.237
343.223
345.122
346.966
348.781
350.59
352.403
354.217
356.011
357.737
359.322
360.656
361.595
361.961
361.548
360.14
357.533
353.569
348.171
341.377
333.351
324.375
314.793
304.94
301.031
303.114
305.27
307.545
309.969
312.551
315.274
318.097
320.967
323.828
326.626
329.316
331.871
334.275
336.53
338.646
340.647
342.561
344.419
346.253
348.094
349.965
351.882
353.845
355.839
357.824
359.728
361.447
362.83
363.688
363.787
362.871
360.68
356.991
351.666
344.694
336.228
326.58
316.164
305.4
301.085
303.271
305.524
307.882
310.367
312.978
315.69
318.46
321.238
323.972
326.619
329.146
331.538
333.79
335.91
337.916
339.834
341.693
343.525
345.363
347.237
349.172
351.185
353.283
355.456
357.673
359.873
361.957
363.78
365.145
365.801
365.452
363.78
360.485
355.346
348.281
339.406
329.053
317.714
305.921
301.141
303.434
305.78
308.21
310.736
313.347
316.016
318.699
321.353
323.936
326.419
328.783
331.021
333.138
335.149
337.074
338.938
340.771
342.601
344.461
346.377
348.375
350.474
352.686
355.007
357.415
359.864
362.268
364.495
366.351
367.579
367.851
366.794
364.022
359.209
352.167
342.941
331.857
319.491
306.52
301.204
303.612
306.049
308.539
311.085
313.672
316.27
318.845
321.361
323.794
326.125
328.349
330.468
332.493
334.438
336.325
338.176
340.018
341.876
343.776
345.744
347.802
349.973
352.268
354.693
357.237
359.867
362.518
365.077
367.369
369.142
370.055
369.687
367.566
363.24
356.378
346.898
335.078
321.564
307.221
301.282
303.824
306.36
308.904
311.458
314.007
316.53
319.001
321.402
323.719
325.948
328.089
330.15
332.143
334.081
335.983
337.868
339.755
341.665
343.62
345.641
347.75
349.966
352.306
354.779
357.386
360.109
362.906
365.69
368.316
370.556
372.077
372.432
371.074
367.413
360.934
351.359
338.834
324.038
308.063
301.396
304.122
306.78
309.393
311.971
314.509
316.997
319.424
321.782
324.067
326.28
328.425
330.51
332.543
334.537
336.503
338.457
340.412
342.385
344.393
346.454
348.586
350.809
353.139
355.59
358.172
360.883
363.7
366.568
369.38
371.95
373.979
375.027
374.5
371.682
365.838
356.411
343.289
327.075
309.108
301.594
304.621
307.484
310.241
312.931
315.564
318.139
320.652
323.098
325.476
327.785
330.031
332.216
334.349
336.437
338.49
340.518
342.534
344.549
346.579
348.638
350.743
352.91
355.158
357.503
359.96
362.538
365.233
368.02
370.832
373.538
375.898
377.52
377.816
375.982
371.064
362.139
348.663
330.936
310.471
301.993
305.607
308.9
312.027
315.06
318.019
320.896
323.682
326.371
328.961
331.453
333.852
336.164
338.398
340.563
342.667
344.723
346.74
348.731
350.708
352.687
354.68
356.705
358.778
360.916
363.137
365.456
367.883
370.414
373.021
375.626
378.068
380.044
381.035
380.236
376.53
368.594
355.235
336.056
312.385
302.902
307.815
312.116
316.111
319.901
323.497
326.891
330.081
333.075
335.885
338.526
341.016
343.369
345.603
347.731
349.768
351.728
353.623
355.466
357.27
359.049
360.815
362.585
364.372
366.192
368.063
370.002
372.023
374.137
376.34
378.602
380.837
382.851
384.263
384.386
382.089
375.731
363.312
343.136
315.367
305.266
313.269
319.767
325.336
330.218
334.536
338.373
341.8
344.88
347.667
350.205
352.534
354.685
356.685
358.555
360.315
361.982
363.571
365.095
366.567
367.999
369.403
370.79
372.174
373.567
374.983
376.436
377.941
379.511
381.155
382.869
384.623
386.325
387.759
388.464
387.529
383.3
373.088
353.251
320.668
312.715
327.657
337.393
344.347
349.674
353.937
357.446
360.397
362.925
365.125
367.066
368.801
370.368
371.797
373.112
374.331
375.471
376.544
377.562
378.534
379.47
380.378
381.266
382.143
383.016
383.895
384.789
385.707
386.66
387.656
388.701
389.79
390.894
391.929
392.685
392.667
390.738
384.31
367.848
331.46
343.225
364.192
372.787
377.527
380.583
382.75
384.384
385.673
386.725
387.608
388.366
389.029
389.618
390.148
390.629
391.071
391.481
391.863
392.224
392.565
392.892
393.207
393.513
393.814
394.111
394.408
394.707
395.014
395.329
395.658
396.003
396.363
396.736
397.103
397.417
397.56
397.24
395.56
388.313
356.6
)
;

boundaryField
{
    movingWall
    {
        type            fixedValue;
        value           uniform 400;
    }
    fixedWalls
    {
        type            fixedValue;
        value           uniform 300;
    }
    frontAndBack
    {
        type            empty;
    }
}


// ************************************************************************* //
