/*--------------------------------*- C++ -*----------------------------------*\
| =========                 |                                                 |
| \\      /  F ield         | OpenFOAM: The Open Source CFD Toolbox           |
|  \\    /   O peration     | Version:  2206                                  |
|   \\  /    A nd           | Website:  www.openfoam.com                      |
|    \\/     M anipulation  |                                                 |
\*---------------------------------------------------------------------------*/
FoamFile
{
    version     2.0;
    format      ascii;
    arch        "LSB;label=32;scalar=64";
    class       volVectorField;
    location    "0.5";
    object      U;
}
// * * * * * * * * * * * * * * * * * * * * * * * * * * * * * * * * * * * * * //

dimensions      [0 1 -1 0 0 0 0];

internalField   nonuniform List<vector> 
1600
(
(6.05483e-05 -6.05461e-05 0)
(0.000155968 -5.71793e-05 0)
(0.000156906 -7.06107e-06 0)
(6.63149e-06 5.24552e-05 0)
(-0.000303315 0.000108012 0)
(-0.00075655 0.000154898 0)
(-0.0013286 0.000191747 0)
(-0.00199249 0.000218604 0)
(-0.002721 0.000236042 0)
(-0.00348785 0.000244809 0)
(-0.00426829 0.000245696 0)
(-0.00503946 0.000239488 0)
(-0.00578049 0.000226947 0)
(-0.00647263 0.000208807 0)
(-0.00709924 0.000185779 0)
(-0.00764584 0.000158553 0)
(-0.00810009 0.000127812 0)
(-0.00845184 9.42359e-05 0)
(-0.00869318 5.85154e-05 0)
(-0.00881847 2.13585e-05 0)
(-0.00882441 -1.64998e-05 0)
(-0.00871016 -5.42921e-05 0)
(-0.00847739 -9.12151e-05 0)
(-0.00813042 -0.000126429 0)
(-0.00767624 -0.000159062 0)
(-0.00712464 -0.000188216 0)
(-0.0064882 -0.000212976 0)
(-0.00578224 -0.000232428 0)
(-0.00502482 -0.000245672 0)
(-0.00423653 -0.000251841 0)
(-0.0034403 -0.000250122 0)
(-0.00266106 -0.000239774 0)
(-0.00192533 -0.000220161 0)
(-0.00126061 -0.0001908 0)
(-0.000694484 -0.000151494 0)
(-0.000253178 -0.000102666 0)
(4.07955e-05 -4.61971e-05 0)
(0.000174303 1.26764e-05 0)
(0.000160367 6.02374e-05 0)
(6.02944e-05 6.00563e-05 0)
(5.87169e-05 -0.000156987 0)
(7.25964e-05 -6.9539e-05 0)
(-0.000178433 0.000182302 0)
(-0.000772711 0.000476958 0)
(-0.00172478 0.000761071 0)
(-0.0030081 0.00100949 0)
(-0.00457409 0.00121091 0)
(-0.00636336 0.00136142 0)
(-0.00831213 0.00146093 0)
(-0.0103562 0.00151133 0)
(-0.0124332 0.00151561 0)
(-0.0144843 0.00147732 0)
(-0.016455 0.00140035 0)
(-0.0182957 0.00128872 0)
(-0.019962 0.00114659 0)
(-0.0214152 0.000978158 0)
(-0.0226222 0.00078768 0)
(-0.0235559 0.000579492 0)
(-0.024195 0.000358027 0)
(-0.0245248 0.000127848 0)
(-0.0245368 -0.000106329 0)
(-0.024229 -0.000339617 0)
(-0.0236064 -0.000566956 0)
(-0.0226811 -0.000783125 0)
(-0.0214721 -0.000982776 0)
(-0.020006 -0.00116049 0)
(-0.0183164 -0.00131086 0)
(-0.016444 -0.0014286 0)
(-0.0144362 -0.00150864 0)
(-0.0123469 -0.00154632 0)
(-0.0102349 -0.00153757 0)
(-0.00816372 -0.00147909 0)
(-0.00619944 -0.00136873 0)
(-0.00440881 -0.00120593 0)
(-0.00285623 -0.000992577 0)
(-0.00159947 -0.000734738 0)
(-0.000682964 -0.000445967 0)
(-0.000126871 -0.000153429 0)
(9.20519e-05 8.84328e-05 0)
(6.17954e-05 0.000160751 0)
(1.14745e-05 -0.000162786 0)
(-0.000171886 0.000178406 0)
(-0.000804022 0.0008139 0)
(-0.00193106 0.00153637 0)
(-0.0035539 0.00223878 0)
(-0.0056366 0.00286165 0)
(-0.00811434 0.00337339 0)
(-0.0109056 0.00375961 0)
(-0.0139209 0.00401614 0)
(-0.0170682 0.00414494 0)
(-0.0202568 0.00415168 0)
(-0.0233998 0.00404436 0)
(-0.0264159 0.00383241 0)
(-0.0292306 0.00352616 0)
(-0.031777 0.0031365 0)
(-0.0339965 0.00267474 0)
(-0.0358387 0.00215254 0)
(-0.0372626 0.00158184 0)
(-0.038236 0.000974936 0)
(-0.0387366 0.000344492 0)
(-0.0387517 -0.000296421 0)
(-0.0382788 -0.000934303 0)
(-0.0373258 -0.00155525 0)
(-0.0359113 -0.00214499 0)
(-0.0340647 -0.00268903 0)
(-0.0318263 -0.0031728 0)
(-0.0292471 -0.00358188 0)
(-0.0263884 -0.00390235 0)
(-0.0233213 -0.00412113 0)
(-0.020126 -0.00422644 0)
(-0.0168896 -0.00420843 0)
(-0.0137052 -0.00405982 0)
(-0.0106686 -0.00377691 0)
(-0.00787524 -0.00336098 0)
(-0.00541564 -0.00282046 0)
(-0.00336927 -0.00217471 0)
(-0.00179579 -0.00146035 0)
(-0.000723119 -0.000741179 0)
(-0.00013884 -0.000126425 0)
(1.76977e-05 0.000180049 0)
(-4.54262e-05 -2.20175e-05 0)
(-0.000464401 0.000767998 0)
(-0.00153544 0.00194145 0)
(-0.00324192 0.00322676 0)
(-0.00555476 0.00446828 0)
(-0.00842295 0.00557114 0)
(-0.0117655 0.0064803 0)
(-0.0154825 0.00716767 0)
(-0.0194642 0.00762262 0)
(-0.023597 0.00784583 0)
(-0.0277683 0.00784544 0)
(-0.0318692 0.00763446 0)
(-0.0357972 0.00722917 0)
(-0.0394579 0.00664797 0)
(-0.0427663 0.00591072 0)
(-0.0456473 0.00503835 0)
(-0.0480371 0.0040526 0)
(-0.0498828 0.00297596 0)
(-0.0511436 0.0018316 0)
(-0.051791 0.000643454 0)
(-0.0518088 -0.000563812 0)
(-0.0511942 -0.00176477 0)
(-0.0499576 -0.00293331 0)
(-0.048123 -0.00404274 0)
(-0.045728 -0.00506606 0)
(-0.0428242 -0.00597626 0)
(-0.0394765 -0.00674683 0)
(-0.035763 -0.00735233 0)
(-0.0317736 -0.00776913 0)
(-0.0276093 -0.00797635 0)
(-0.0233797 -0.00795697 0)
(-0.0192009 -0.00769922 0)
(-0.0151919 -0.00719835 0)
(-0.0114704 -0.00645919 0)
(-0.00814791 -0.00549959 0)
(-0.0053223 -0.00435604 0)
(-0.00306902 -0.00309208 0)
(-0.00142993 -0.00180992 0)
(-0.000420077 -0.00066954 0)
(-3.67005e-05 5.98007e-05 0)
(-0.000100544 0.000278596 0)
(-0.000761289 0.00172921 0)
(-0.00228995 0.00359213 0)
(-0.00459384 0.00555628 0)
(-0.00760343 0.00742895 0)
(-0.0112467 0.00908504 0)
(-0.0154238 0.0104476 0)
(-0.0200168 0.0114745 0)
(-0.024898 0.012148 0)
(-0.029936 0.0124668 0)
(-0.035 0.0124414 0)
(-0.0399634 0.0120902 0)
(-0.044707 0.0114372 0)
(-0.0491204 0.01051 0)
(-0.0531038 0.00933904 0)
(-0.0565693 0.00795675 0)
(-0.0594418 0.00639702 0)
(-0.0616592 0.00469505 0)
(-0.0631736 0.00288727 0)
(-0.0639513 0.00101127 0)
(-0.0639737 -0.000894173 0)
(-0.0632372 -0.00278916 0)
(-0.0617543 -0.00463279 0)
(-0.059553 -0.00638338 0)
(-0.0566779 -0.0079989 0)
(-0.0531891 -0.00943744 0)
(-0.0491628 -0.010658 0)
(-0.0446902 -0.0116216 0)
(-0.0398765 -0.0122923 0)
(-0.0348392 -0.0126384 0)
(-0.029706 -0.012635 0)
(-0.0246117 -0.0122653 0)
(-0.0196945 -0.0115237 0)
(-0.0150913 -0.0104195 0)
(-0.0109321 -0.00898088 0)
(-0.00733377 -0.00726226 0)
(-0.00439027 -0.0053532 0)
(-0.00216377 -0.00339012 0)
(-0.000707331 -0.0015734 0)
(-8.9671e-05 -0.000214699 0)
(-0.000150824 0.000732669 0)
(-0.00104607 0.00306281 0)
(-0.00302988 0.00577324 0)
(-0.00593104 0.00853227 0)
(-0.0096344 0.0111218 0)
(-0.0140421 0.0133934 0)
(-0.0190326 0.0152521 0)
(-0.0244686 0.0166436 0)
(-0.0302048 0.0175436 0)
(-0.0360935 0.0179495 0)
(-0.0419883 0.0178745 0)
(-0.047748 0.017343 0)
(-0.0532392 0.0163874 0)
(-0.0583385 0.0150459 0)
(-0.0629346 0.0133608 0)
(-0.0669292 0.0113773 0)
(-0.070238 0.00914328 0)
(-0.0727916 0.00670838 0)
(-0.0745363 0.00412414 0)
(-0.0754344 0.00144378 0)
(-0.0754649 -0.00127782 0)
(-0.0746237 -0.00398427 0)
(-0.0729244 -0.00661781 0)
(-0.0703984 -0.00911971 0)
(-0.067095 -0.0114308 0)
(-0.0630813 -0.0134923 0)
(-0.0584421 -0.0152469 0)
(-0.0532792 -0.01664 0)
(-0.0477098 -0.0176217 0)
(-0.041865 -0.0181487 0)
(-0.0358876 -0.0181864 0)
(-0.0299284 -0.0177127 0)
(-0.0241429 -0.0167206 0)
(-0.0186857 -0.0152232 0)
(-0.0137056 -0.0132588 0)
(-0.00933978 -0.0108984 0)
(-0.00570444 -0.00825447 0)
(-0.00288695 -0.00549164 0)
(-0.000983821 -0.00284052 0)
(-0.000137986 -0.00063779 0)
(-0.00019617 0.00132987 0)
(-0.0013144 0.00475738 0)
(-0.00374141 0.00847713 0)
(-0.00723031 0.0121491 0)
(-0.0116187 0.0155396 0)
(-0.0167799 0.018484 0)
(-0.0225679 0.0208742 0)
(-0.0288242 0.0226467 0)
(-0.0353858 0.023773 0)
(-0.042089 0.0242504 0)
(-0.0487729 0.024096 0)
(-0.0552833 0.023341 0)
(-0.0614749 0.0220276 0)
(-0.0672137 0.0202053 0)
(-0.0723787 0.0179296 0)
(-0.0768633 0.01526 0)
(-0.0805761 0.0122594 0)
(-0.0834419 0.00899345 0)
(-0.0854021 0.00553019 0)
(-0.0864158 0.00193998 0)
(-0.0864597 -0.0017047 0)
(-0.0855292 -0.00532936 0)
(-0.0836385 -0.00885781 0)
(-0.0808208 -0.0122126 0)
(-0.0771291 -0.0153158 0)
(-0.0726356 -0.0180901 0)
(-0.0674317 -0.02046 0)
(-0.0616272 -0.022354 0)
(-0.0553493 -0.0237065 0)
(-0.0487407 -0.0244607 0)
(-0.041957 -0.0245717 0)
(-0.035164 -0.0240102 0)
(-0.0285332 -0.0227667 0)
(-0.0222371 -0.020857 0)
(-0.0164445 -0.0183274 0)
(-0.0113152 -0.0152629 0)
(-0.00699049 -0.0117949 0)
(-0.00358661 -0.00811031 0)
(-0.00124539 -0.00446158 0)
(-0.000181524 -0.00119977 0)
(-0.000237511 0.00206048 0)
(-0.00156747 0.00679837 0)
(-0.00442347 0.0116904 0)
(-0.00848745 0.0163953 0)
(-0.0135502 0.0206712 0)
(-0.0194542 0.024344 0)
(-0.0260273 0.0272972 0)
(-0.0330884 0.0294623 0)
(-0.0404555 0.0308092 0)
(-0.0479487 0.0313375 0)
(-0.0553935 0.0310698 0)
(-0.0626235 0.0300459 0)
(-0.069483 0.0283186 0)
(-0.075829 0.0259505 0)
(-0.0815326 0.0230111 0)
(-0.0864805 0.0195753 0)
(-0.0905755 0.0157224 0)
(-0.0937378 0.0115348 0)
(-0.0959051 0.00709838 0)
(-0.0970335 0.00250163 0)
(-0.097098 -0.00216422 0)
(-0.0960928 -0.00680549 0)
(-0.0940321 -0.0113263 0)
(-0.0909502 -0.0156293 0)
(-0.0869021 -0.0196164 0)
(-0.0819636 -0.0231903 0)
(-0.0762307 -0.026256 0)
(-0.0698199 -0.0287233 0)
(-0.0628662 -0.0305093 0)
(-0.0555224 -0.031542 0)
(-0.047956 -0.0317642 0)
(-0.0403465 -0.0311376 0)
(-0.0328818 -0.0296485 0)
(-0.0257531 -0.0273126 0)
(-0.0191508 -0.0241821 0)
(-0.0132592 -0.0203523 0)
(-0.00824774 -0.0159695 0)
(-0.00426349 -0.0112375 0)
(-0.00149387 -0.00642486 0)
(-0.000221299 -0.00189176 0)
(-0.000275985 0.00291671 0)
(-0.00180863 0.00917239 0)
(-0.00508098 0.0153994 0)
(-0.00970814 0.021259 0)
(-0.0154351 0.0265061 0)
(-0.0220729 0.0309627 0)
(-0.0294216 0.034509 0)
(-0.0372764 0.0370755 0)
(-0.0454352 0.0386341 0)
(-0.0537018 0.0391893 0)
(-0.061888 0.0387716 0)
(-0.0698159 0.0374314 0)
(-0.0773205 0.0352339 0)
(-0.0842509 0.0322557 0)
(-0.0904716 0.0285818 0)
(-0.095864 0.0243035 0)
(-0.100327 0.0195173 0)
(-0.103776 0.0143235 0)
(-0.106146 0.00882632 0)
(-0.107392 0.00313318 0)
(-0.107486 -0.00264523 0)
(-0.10642 -0.00839523 0)
(-0.104209 -0.0140005 0)
(-0.100887 -0.0193428 0)
(-0.0965101 -0.0243028 0)
(-0.091155 -0.028762 0)
(-0.0849217 -0.0326044 0)
(-0.0779312 -0.0357193 0)
(-0.0703254 -0.038005 0)
(-0.0622654 -0.0393721 0)
(-0.0539301 -0.0397487 0)
(-0.0455128 -0.0390854 0)
(-0.0372178 -0.037361 0)
(-0.0292562 -0.0345888 0)
(-0.0218415 -0.030823 0)
(-0.0151852 -0.0261659 0)
(-0.00948642 -0.0207746 0)
(-0.00492502 -0.0148659 0)
(-0.00173354 -0.00872095 0)
(-0.000258609 -0.00270724 0)
(-0.000312647 0.00389306 0)
(-0.00204176 0.0118691 0)
(-0.00572123 0.0195932 0)
(-0.0109026 0.0267301 0)
(-0.017286 0.0330357 0)
(-0.0246507 0.0383322 0)
(-0.0327682 0.0425011 0)
(-0.0414085 0.0454762 0)
(-0.0503491 0.0472352 0)
(-0.0593768 0.0477909 0)
(-0.0682898 0.0471845 0)
(-0.0768993 0.045479 0)
(-0.0850314 0.0427542 0)
(-0.0925287 0.0391022 0)
(-0.0992503 0.0346249 0)
(-0.105073 0.0294309 0)
(-0.109893 0.0236346 0)
(-0.113623 0.017355 0)
(-0.116196 0.0107149 0)
(-0.117564 0.00384116 0)
(-0.117696 -0.00313566 0)
(-0.116586 -0.0100815 0)
(-0.114245 -0.0168592 0)
(-0.110706 -0.0233288 0)
(-0.106024 -0.0293491 0)
(-0.100279 -0.034779 0)
(-0.09357 -0.0394803 0)
(-0.0860225 -0.0433203 0)
(-0.0777833 -0.0461758 0)
(-0.0690212 -0.0479381 0)
(-0.0599257 -0.0485177 0)
(-0.0507036 -0.0478509 0)
(-0.0415765 -0.0459058 0)
(-0.0327766 -0.0426896 0)
(-0.0245422 -0.038255 0)
(-0.0171136 -0.0327074 0)
(-0.0107221 -0.0262112 0)
(-0.0055815 -0.0189931 0)
(-0.00196944 -0.0113448 0)
(-0.000294716 -0.00364249 0)
(-0.000348399 0.00498624 0)
(-0.00227064 0.0148821 0)
(-0.00635209 0.0242644 0)
(-0.0120825 0.0328021 0)
(-0.0191178 0.0402541 0)
(-0.0272052 0.0464467 0)
(-0.0360866 0.0512671 0)
(-0.0455063 0.0546567 0)
(-0.0552205 0.0566029 0)
(-0.0649989 0.0571305 0)
(-0.0746259 0.0562946 0)
(-0.0839023 0.0541736 0)
(-0.0926464 0.0508638 0)
(-0.100695 0.046475 0)
(-0.107903 0.041127 0)
(-0.114144 0.0349469 0)
(-0.119313 0.0280676 0)
(-0.123319 0.0206269 0)
(-0.126095 0.0127669 0)
(-0.12759 0.0046337 0)
(-0.127774 -0.00362231 0)
(-0.126635 -0.0118466 0)
(-0.124184 -0.0198809 0)
(-0.120452 -0.0275633 0)
(-0.115492 -0.03473 0)
(-0.109382 -0.0412167 0)
(-0.102223 -0.046861 0)
(-0.0941407 -0.0515066 0)
(-0.0852861 -0.0550069 0)
(-0.0758348 -0.0572304 0)
(-0.0659857 -0.0580672 0)
(-0.0559595 -0.0574354 0)
(-0.0459955 -0.0552887 0)
(-0.0363479 -0.0516239 0)
(-0.0272817 -0.0464881 0)
(-0.0190681 -0.039986 0)
(-0.0119726 -0.0322859 0)
(-0.00624421 -0.0236224 0)
(-0.0022067 -0.0142969 0)
(-0.000330761 -0.00469667 0)
(-0.000383992 0.00619494 0)
(-0.00249871 0.0182085 0)
(-0.00698113 0.0294101 0)
(-0.0132596 0.039472 0)
(-0.0209459 0.0481584 0)
(-0.0297542 0.055303 0)
(-0.0393962 0.0608025 0)
(-0.0495899 0.0646104 0)
(-0.0600696 0.0667282 0)
(-0.0705876 0.0671967 0)
(-0.0809148 0.0660883 0)
(-0.0908422 0.0635 0)
(-0.100181 0.0595472 0)
(-0.108764 0.0543591 0)
(-0.116442 0.0480749 0)
(-0.123089 0.0408411 0)
(-0.128596 0.0328098 0)
(-0.132874 0.0241378 0)
(-0.135854 0.0149861 0)
(-0.137483 0.00551999 0)
(-0.137729 -0.00409065 0)
(-0.13658 -0.0136712 0)
(-0.134042 -0.0230424 0)
(-0.130143 -0.0320205 0)
(-0.124934 -0.0404187 0)
(-0.11849 -0.0480483 0)
(-0.110908 -0.0547221 0)
(-0.102317 -0.0602576 0)
(-0.0928676 -0.0644823 0)
(-0.0827418 -0.0672392 0)
(-0.0721472 -0.0683938 0)
(-0.0613177 -0.0678419 0)
(-0.0505108 -0.0655182 0)
(-0.0400037 -0.0614043 0)
(-0.0300898 -0.0555371 0)
(-0.0210734 -0.0480168 0)
(-0.013256 -0.0390122 0)
(-0.0069244 -0.0287637 0)
(-0.00245021 -0.0175832 0)
(-0.000367762 -0.00587167 0)
(-0.000420053 0.00751959 0)
(-0.00272901 0.0218492 0)
(-0.0076153 0.0350313 0)
(-0.0144449 0.0467407 0)
(-0.0227843 0.0567486 0)
(-0.0323139 0.0648993 0)
(-0.0427142 0.0711032 0)
(-0.0536759 0.0753304 0)
(-0.0649112 0.0776009 0)
(-0.0761549 0.077976 0)
(-0.0871649 0.0765496 0)
(-0.0977234 0.0734404 0)
(-0.107636 0.0687858 0)
(-0.116731 0.0627365 0)
(-0.12486 0.0554527 0)
(-0.131895 0.047101 0)
(-0.137728 0.0378532 0)
(-0.14227 0.0278849 0)
(-0.145452 0.0173758 0)
(-0.147221 0.00650969 0)
(-0.147544 -0.00452484 0)
(-0.146404 -0.0155338 0)
(-0.143805 -0.0263176 0)
(-0.13977 -0.0366709 0)
(-0.134346 -0.0463837 0)
(-0.127601 -0.0552427 0)
(-0.119633 -0.0630341 0)
(-0.110563 -0.0695479 0)
(-0.100546 -0.0745824 0)
(-0.0897663 -0.0779515 0)
(-0.0784384 -0.079492 0)
(-0.0668094 -0.0790727 0)
(-0.0551546 -0.0766036 0)
(-0.0437754 -0.0720458 0)
(-0.0329951 -0.0654212 0)
(-0.0231531 -0.0568204 0)
(-0.0145899 -0.0464097 0)
(-0.00763291 -0.0344338 0)
(-0.00270455 -0.0212149 0)
(-0.00040663 -0.00717189 0)
(-0.000457115 0.00896211 0)
(-0.00296423 0.0258083 0)
(-0.0082609 0.0411329 0)
(-0.0156484 0.0546126 0)
(-0.024646 0.0660274 0)
(-0.0348987 0.0752353 0)
(-0.0460546 0.0821649 0)
(-0.0577765 0.0868076 0)
(-0.0697538 0.0892074 0)
(-0.0817042 0.0894507 0)
(-0.0933735 0.0876571 0)
(-0.104536 0.0839711 0)
(-0.114993 0.078555 0)
(-0.124571 0.0715834 0)
(-0.133123 0.0632388 0)
(-0.140522 0.0537091 0)
(-0.146662 0.0431856 0)
(-0.151457 0.0318627 0)
(-0.154837 0.0199378 0)
(-0.156751 0.00761226 0)
(-0.157163 -0.00490778 0)
(-0.156055 -0.0174102 0)
(-0.153424 -0.0296761 0)
(-0.149289 -0.0414795 0)
(-0.14369 -0.0525873 0)
(-0.13669 -0.0627613 0)
(-0.128378 -0.0717603 0)
(-0.118872 -0.0793442 0)
(-0.108323 -0.0852799 0)
(-0.096918 -0.0893479 0)
(-0.0848768 -0.0913515 0)
(-0.0724575 -0.0911267 0)
(-0.0599536 -0.088553 0)
(-0.0476907 -0.0835649 0)
(-0.0360237 -0.0761627 0)
(-0.0253296 -0.0664226 0)
(-0.0159913 -0.0545047 0)
(-0.00838002 -0.0406557 0)
(-0.00297404 -0.0252089 0)
(-0.000448202 -0.00860405 0)
(-0.000495652 0.0105258 0)
(-0.00320684 0.030093 0)
(-0.00892373 0.0477232 0)
(-0.0168792 0.063095 0)
(-0.0265424 0.0759991 0)
(-0.0375207 0.0863107 0)
(-0.0494282 0.0939815 0)
(-0.0618986 0.0990297 0)
(-0.0745986 0.101529 0)
(-0.0872291 0.101596 0)
(-0.0995249 0.0993814 0)
(-0.111254 0.0950596 0)
(-0.122215 0.0888212 0)
(-0.132237 0.0808669 0)
(-0.141174 0.0714034 0)
(-0.148903 0.0606402 0)
(-0.155324 0.0487885 0)
(-0.160352 0.0360606 0)
(-0.163923 0.0226707 0)
(-0.165983 0.00883607 0)
(-0.166498 -0.00522139 0)
(-0.165444 -0.0192731 0)
(-0.162815 -0.0330826 0)
(-0.158624 -0.0464041 0)
(-0.1529 -0.0589829 0)
(-0.145698 -0.0705555 0)
(-0.137097 -0.0808525 0)
(-0.127209 -0.0896022 0)
(-0.116179 -0.0965366 0)
(-0.104189 -0.101399 0)
(-0.0914658 -0.103953 0)
(-0.078275 -0.103997 0)
(-0.0649269 -0.101371 0)
(-0.0517723 -0.0959771 0)
(-0.0391985 -0.087786 0)
(-0.0276234 -0.0768537 0)
(-0.0174756 -0.0633291 0)
(-0.00917549 -0.0474585 0)
(-0.00326279 -0.0295866 0)
(-0.000493272 -0.0101771 0)
(-0.000536118 0.0122151 0)
(-0.00345919 0.0347129 0)
(-0.00960931 0.0548139 0)
(-0.0181458 0.0721981 0)
(-0.0284837 0.0866691 0)
(-0.0401898 0.0981242 0)
(-0.0528421 0.106543 0)
(-0.066044 0.111978 0)
(-0.0794391 0.114538 0)
(-0.0927126 0.114377 0)
(-0.10559 0.111682 0)
(-0.117834 0.106661 0)
(-0.129246 0.0995382 0)
(-0.139657 0.090542 0)
(-0.148927 0.0799049 0)
(-0.156941 0.067859 0)
(-0.163604 0.0546349 0)
(-0.168839 0.0404617 0)
(-0.172583 0.0255688 0)
(-0.174788 0.0101874 0)
(-0.175416 -0.00544704 0)
(-0.174443 -0.021092 0)
(-0.171856 -0.0364955 0)
(-0.167658 -0.0513944 0)
(-0.16187 -0.0655132 0)
(-0.154532 -0.0785641 0)
(-0.145714 -0.090249 0)
(-0.135514 -0.100263 0)
(-0.124068 -0.1083 0)
(-0.111553 -0.114061 0)
(-0.098193 -0.117267 0)
(-0.0842621 -0.117667 0)
(-0.070085 -0.115057 0)
(-0.0560368 -0.109295 0)
(-0.0425389 -0.100316 0)
(-0.0300529 -0.0881467 0)
(-0.0190579 -0.0729197 0)
(-0.0100287 -0.0548772 0)
(-0.0035748 -0.0343743 0)
(-0.000542621 -0.011902 0)
(-0.000578985 0.0140357 0)
(-0.00372374 0.0396806 0)
(-0.0103233 0.0624194 0)
(-0.0194569 0.0819338 0)
(-0.0304798 0.0980434 0)
(-0.0429145 0.110672 0)
(-0.0563001 0.119836 0)
(-0.0702084 0.125627 0)
(-0.0842602 0.128197 0)
(-0.0981258 0.127746 0)
(-0.111523 0.124503 0)
(-0.124215 0.118716 0)
(-0.136006 0.110644 0)
(-0.146733 0.100548 0)
(-0.156268 0.0886872 0)
(-0.164504 0.0753168 0)
(-0.171357 0.0606861 0)
(-0.176759 0.0450397 0)
(-0.180653 0.02862 0)
(-0.182994 0.0116693 0)
(-0.183745 -0.00556617 0)
(-0.182879 -0.022833 0)
(-0.180378 -0.039867 0)
(-0.176233 -0.0563901 0)
(-0.170452 -0.0721082 0)
(-0.163062 -0.0867106 0)
(-0.154115 -0.0998705 0)
(-0.143694 -0.111249 0)
(-0.131919 -0.120498 0)
(-0.118957 -0.127274 0)
(-0.105027 -0.131245 0)
(-0.0904045 -0.132106 0)
(-0.0754276 -0.129598 0)
(-0.060494 -0.123525 0)
(-0.0460603 -0.113775 0)
(-0.0326346 -0.100336 0)
(-0.0207519 -0.0833174 0)
(-0.0109489 -0.0629515 0)
(-0.00391411 -0.0396027 0)
(-0.000597056 -0.0137919 0)
(-0.000624791 0.0159948 0)
(-0.00400326 0.0450117 0)
(-0.0110721 0.0705577 0)
(-0.0208215 0.0923163 0)
(-0.0325405 0.110127 0)
(-0.0457021 0.123948 0)
(-0.0598032 0.133838 0)
(-0.0743825 0.139938 0)
(-0.089038 0.142455 0)
(-0.103427 0.14164 0)
(-0.117264 0.137771 0)
(-0.130314 0.131143 0)
(-0.142388 0.122056 0)
(-0.153338 0.110804 0)
(-0.163047 0.0976755 0)
(-0.171424 0.0829482 0)
(-0.178399 0.0668893 0)
(-0.183913 0.049757 0)
(-0.187921 0.0318038 0)
(-0.190383 0.01328 0)
(-0.191264 -0.00556117 0)
(-0.190533 -0.0244594 0)
(-0.188164 -0.0431421 0)
(-0.184141 -0.0613198 0)
(-0.178454 -0.078683 0)
(-0.171112 -0.0949003 0)
(-0.162146 -0.109617 0)
(-0.151617 -0.122459 0)
(-0.139625 -0.133037 0)
(-0.126322 -0.140954 0)
(-0.111912 -0.14582 0)
(-0.0966708 -0.147267 0)
(-0.0809423 -0.144969 0)
(-0.0651459 -0.138664 0)
(-0.0497735 -0.128181 0)
(-0.0353829 -0.113457 0)
(-0.0225713 -0.0945663 0)
(-0.0119455 -0.0717263 0)
(-0.00428494 -0.0453073 0)
(-0.000657448 -0.0158621 0)
(-0.000674204 0.0181008 0)
(-0.0043011 0.0507249 0)
(-0.0118631 0.0792497 0)
(-0.0222505 0.103361 0)
(-0.034677 0.122925 0)
(-0.0485599 0.137939 0)
(-0.0633498 0.148517 0)
(-0.0785507 0.154861 0)
(-0.0937388 0.157242 0)
(-0.108561 0.155972 0)
(-0.122731 0.151389 0)
(-0.136022 0.143839 0)
(-0.148259 0.133668 0)
(-0.159311 0.121206 0)
(-0.169079 0.106773 0)
(-0.177493 0.090668 0)
(-0.184499 0.0731745 0)
(-0.190056 0.0545619 0)
(-0.194129 0.0350895 0)
(-0.196687 0.0150116 0)
(-0.197697 -0.00541646 0)
(-0.197128 -0.025932 0)
(-0.194947 -0.0462586 0)
(-0.191122 -0.0661004 0)
(-0.185629 -0.0851367 0)
(-0.178454 -0.103018 0)
(-0.169603 -0.119365 0)
(-0.159108 -0.133768 0)
(-0.147044 -0.145793 0)
(-0.133534 -0.154988 0)
(-0.118768 -0.160897 0)
(-0.103008 -0.163077 0)
(-0.0866019 -0.161124 0)
(-0.069985 -0.154696 0)
(-0.0536843 -0.143544 0)
(-0.0383106 -0.127541 0)
(-0.0245294 -0.106712 0)
(-0.0130282 -0.0812509 0)
(-0.00469191 -0.0515281 0)
(-0.00072478 -0.0181301 0)
(-0.000728098 0.0203644 0)
(-0.00462162 0.056843 0)
(-0.0127059 0.0885206 0)
(-0.0237574 0.115087 0)
(-0.0369027 0.136438 0)
(-0.0514957 0.152625 0)
(-0.0669361 0.163829 0)
(-0.0826917 0.170327 0)
(-0.098318 0.172465 0)
(-0.113455 0.170632 0)
(-0.127823 0.165231 0)
(-0.141207 0.156671 0)
(-0.153453 0.145344 0)
(-0.164454 0.131623 0)
(-0.174138 0.115857 0)
(-0.182457 0.0983673 0)
(-0.189382 0.0794514 0)
(-0.19489 0.0593863 0)
(-0.198963 0.038434 0)
(-0.20158 0.0168478 0)
(-0.202714 -0.00511982 0)
(-0.202333 -0.0272097 0)
(-0.200395 -0.0491476 0)
(-0.196858 -0.0706367 0)
(-0.191675 -0.0913504 0)
(-0.184807 -0.110926 0)
(-0.17623 -0.128963 0)
(-0.165942 -0.145018 0)
(-0.153983 -0.15861 0)
(-0.140443 -0.16923 0)
(-0.125481 -0.176347 0)
(-0.10934 -0.179435 0)
(-0.0923614 -0.177994 0)
(-0.0749928 -0.171584 0)
(-0.0577932 -0.159862 0)
(-0.0414283 -0.142615 0)
(-0.0266399 -0.119802 0)
(-0.014208 -0.0915788 0)
(-0.00514033 -0.05831 0)
(-0.000800219 -0.0206161 0)
(-0.000787663 0.0227987 0)
(-0.00497062 0.0633944 0)
(-0.0136133 0.0984007 0)
(-0.0253595 0.127512 0)
(-0.0392345 0.150664 0)
(-0.0545191 0.167977 0)
(-0.0705562 0.179713 0)
(-0.0867766 0.186243 0)
(-0.102718 0.188005 0)
(-0.118019 0.185476 0)
(-0.13241 0.179139 0)
(-0.145701 0.169469 0)
(-0.157766 0.156914 0)
(-0.168529 0.14189 0)
(-0.177949 0.124774 0)
(-0.186012 0.105911 0)
(-0.192716 0.0856064 0)
(-0.198062 0.0641428 0)
(-0.202053 0.0417792 0)
(-0.204679 0.0187625 0)
(-0.205923 -0.00466397 0)
(-0.205751 -0.028251 0)
(-0.204117 -0.0517335 0)
(-0.200963 -0.0748207 0)
(-0.19622 -0.0971867 0)
(-0.189823 -0.118462 0)
(-0.181709 -0.138229 0)
(-0.171837 -0.156014 0)
(-0.160202 -0.171292 0)
(-0.146849 -0.183491 0)
(-0.131897 -0.192 0)
(-0.115558 -0.196198 0)
(-0.0981546 -0.195473 0)
(-0.0801376 -0.189267 0)
(-0.0620938 -0.177116 0)
(-0.0447454 -0.158698 0)
(-0.0289178 -0.133883 0)
(-0.0154973 -0.102768 0)
(-0.00563652 -0.0657037 0)
(-0.0008852 -0.0233431 0)
(-0.000854548 0.0254202 0)
(-0.00535603 0.0704145 0)
(-0.0146022 0.108927 0)
(-0.0270801 0.140658 0)
(-0.0416947 0.165599 0)
(-0.0576415 0.183952 0)
(-0.0742014 0.196087 0)
(-0.0907673 0.202488 0)
(-0.106863 0.203706 0)
(-0.122134 0.200322 0)
(-0.136333 0.192912 0)
(-0.149301 0.182025 0)
(-0.16095 0.168169 0)
(-0.171245 0.151804 0)
(-0.180188 0.133339 0)
(-0.187799 0.113132 0)
(-0.194113 0.0915002 0)
(-0.19916 0.0687224 0)
(-0.202965 0.0450502 0)
(-0.205536 0.0207176 0)
(-0.206865 -0.00404826 0)
(-0.20692 -0.0290155 0)
(-0.20565 -0.053936 0)
(-0.202982 -0.0785329 0)
(-0.198827 -0.102489 0)
(-0.193083 -0.125437 0)
(-0.185651 -0.146948 0)
(-0.176441 -0.166524 0)
(-0.165393 -0.183598 0)
(-0.152497 -0.197534 0)
(-0.137817 -0.207638 0)
(-0.121517 -0.213178 0)
(-0.103888 -0.213416 0)
(-0.0853706 -0.207649 0)
(-0.0665718 -0.195263 0)
(-0.0482693 -0.175795 0)
(-0.0313794 -0.148996 0)
(-0.0169113 -0.114881 0)
(-0.00618838 -0.0737664 0)
(-0.000981561 -0.0263382 0)
(-0.000931079 0.0282504 0)
(-0.0057888 0.0779484 0)
(-0.0156958 0.120145 0)
(-0.02895 0.154551 0)
(-0.0443116 0.181228 0)
(-0.0608768 0.20049 0)
(-0.0778581 0.21284 0)
(-0.0946124 0.218903 0)
(-0.110657 0.21937 0)
(-0.125654 0.214943 0)
(-0.139391 0.206303 0)
(-0.151754 0.194084 0)
(-0.162704 0.178856 0)
(-0.172258 0.161124 0)
(-0.180466 0.141326 0)
(-0.187396 0.119834 0)
(-0.193121 0.0969656 0)
(-0.197705 0.0729934 0)
(-0.2012 0.048154 0)
(-0.203635 0.0226616 0)
(-0.205012 -0.00328042 0)
(-0.205305 -0.0294656 0)
(-0.204459 -0.0556712 0)
(-0.202386 -0.0816436 0)
(-0.198975 -0.107085 0)
(-0.194092 -0.131637 0)
(-0.18759 -0.15487 0)
(-0.179327 -0.176271 0)
(-0.169179 -0.195235 0)
(-0.157067 -0.211066 0)
(-0.142982 -0.22298 0)
(-0.127025 -0.230127 0)
(-0.109433 -0.231621 0)
(-0.0906213 -0.226587 0)
(-0.0712024 -0.214227 0)
(-0.0520054 -0.193895 0)
(-0.0340441 -0.165182 0)
(-0.0184688 -0.127983 0)
(-0.00680614 -0.0825636 0)
(-0.00109173 -0.0296329 0)
(-0.00102056 0.0313176 0)
(-0.00628417 0.0860543 0)
(-0.0169255 0.132112 0)
(-0.03101 0.169218 0)
(-0.0471215 0.197528 0)
(-0.0642401 0.217505 0)
(-0.0815047 0.229823 0)
(-0.0982405 0.235285 0)
(-0.11397 0.234746 0)
(-0.128388 0.229054 0)
(-0.141332 0.219008 0)
(-0.152747 0.205335 0)
(-0.162661 0.18867 0)
(-0.171152 0.169563 0)
(-0.178329 0.148474 0)
(-0.184311 0.125784 0)
(-0.189217 0.101807 0)
(-0.19315 0.0768 0)
(-0.196191 0.0509783 0)
(-0.19839 0.0245282 0)
(-0.199766 -0.00237827 0)
(-0.2003 -0.0295686 0)
(-0.199933 -0.0568545 0)
(-0.198567 -0.0840156 0)
(-0.196067 -0.110783 0)
(-0.192266 -0.136821 0)
(-0.186972 -0.16171 0)
(-0.17998 -0.184933 0)
(-0.171095 -0.205857 0)
(-0.160155 -0.223729 0)
(-0.147062 -0.237679 0)
(-0.131829 -0.246727 0)
(-0.114618 -0.24982 0)
(-0.09579 -0.245883 0)
(-0.0759463 -0.233889 0)
(-0.0559565 -0.21296 0)
(-0.0369352 -0.182469 0)
(-0.0201942 -0.142148 0)
(-0.00750341 -0.0921708 0)
(-0.00121903 -0.0332652 0)
(-0.00112777 0.0346592 0)
(-0.00686343 0.0948085 0)
(-0.0183343 0.1449 0)
(-0.0333137 0.184687 0)
(-0.050169 0.214461 0)
(-0.0677446 0.234879 0)
(-0.0851035 0.246839 0)
(-0.101549 0.251366 0)
(-0.116627 0.249514 0)
(-0.130086 0.242301 0)
(-0.141833 0.230658 0)
(-0.151895 0.215409 0)
(-0.160378 0.197257 0)
(-0.167434 0.176788 0)
(-0.17324 0.154482 0)
(-0.177975 0.130719 0)
(-0.181805 0.105802 0)
(-0.184874 0.0799644 0)
(-0.187296 0.0533922 0)
(-0.189147 0.0262362 0)
(-0.19046 -0.00137097 0)
(-0.191226 -0.0292992 0)
(-0.191386 -0.0574039 0)
(-0.190835 -0.0855082 0)
(-0.189418 -0.113384 0)
(-0.186934 -0.14073 0)
(-0.183145 -0.167153 0)
(-0.177784 -0.192144 0)
(-0.170576 -0.215057 0)
(-0.161262 -0.235096 0)
(-0.149639 -0.251304 0)
(-0.135602 -0.262571 0)
(-0.11921 -0.267661 0)
(-0.100737 -0.265262 0)
(-0.0807434 -0.254072 0)
(-0.0601202 -0.232914 0)
(-0.040081 -0.200874 0)
(-0.0221197 -0.157451 0)
(-0.00829885 -0.102677 0)
(-0.0013681 -0.0372813 0)
(-0.00125965 0.0383262 0)
(-0.00755662 0.104311 0)
(-0.0199801 0.158599 0)
(-0.0359304 0.200989 0)
(-0.0535055 0.231963 0)
(-0.0713951 0.252446 0)
(-0.088589 0.263626 0)
(-0.104388 0.266804 0)
(-0.118386 0.263277 0)
(-0.130415 0.254254 0)
(-0.14048 0.240812 0)
(-0.148711 0.223874 0)
(-0.155307 0.204204 0)
(-0.16051 0.182421 0)
(-0.16457 0.159011 0)
(-0.167728 0.134346 0)
(-0.170203 0.108704 0)
(-0.172181 0.0822893 0)
(-0.173806 0.0552489 0)
(-0.175181 0.0276907 0)
(-0.176356 -0.000299783 0)
(-0.177334 -0.0286423 0)
(-0.178061 -0.0572446 0)
(-0.178424 -0.0859831 0)
(-0.178256 -0.114682 0)
(-0.177327 -0.143091 0)
(-0.175356 -0.170857 0)
(-0.172014 -0.197498 0)
(-0.166941 -0.222374 0)
(-0.159773 -0.244663 0)
(-0.150179 -0.263335 0)
(-0.137915 -0.277153 0)
(-0.122894 -0.284685 0)
(-0.105265 -0.284352 0)
(-0.0855021 -0.274519 0)
(-0.0644856 -0.253631 0)
(-0.0435161 -0.220394 0)
(-0.0242886 -0.173974 0)
(-0.00921862 -0.11419 0)
(-0.00154569 -0.0417396 0)
(-0.0014266 0.0423885 0)
(-0.0084065 0.114696 0)
(-0.021942 0.173319 0)
(-0.0389472 0.218144 0)
(-0.0571858 0.249931 0)
(-0.0751748 0.269969 0)
(-0.0918452 0.279829 0)
(-0.106527 0.281156 0)
(-0.118903 0.275534 0)
(-0.128926 0.264388 0)
(-0.136735 0.248947 0)
(-0.142581 0.230229 0)
(-0.146781 0.20905 0)
(-0.149671 0.186045 0)
(-0.151581 0.161695 0)
(-0.152817 0.136349 0)
(-0.153647 0.110252 0)
(-0.154296 0.0835651 0)
(-0.15494 0.0563903 0)
(-0.155704 0.0287853 0)
(-0.156658 0.00078227 0)
(-0.157816 -0.0275949 0)
(-0.159132 -0.0563133 0)
(-0.160495 -0.0853118 0)
(-0.161728 -0.114479 0)
(-0.162583 -0.143626 0)
(-0.162742 -0.172462 0)
(-0.161819 -0.200554 0)
(-0.159374 -0.227292 0)
(-0.154929 -0.251851 0)
(-0.148012 -0.273155 0)
(-0.138209 -0.28985 0)
(-0.125247 -0.300307 0)
(-0.109094 -0.302655 0)
(-0.0900816 -0.294864 0)
(-0.0690247 -0.274909 0)
(-0.0472817 -0.240989 0)
(-0.0267598 -0.191803 0)
(-0.0103003 -0.12684 0)
(-0.00176186 -0.046715 0)
(-0.0016445 0.0469435 0)
(-0.00947479 0.126141 0)
(-0.0243266 0.189198 0)
(-0.0424707 0.236157 0)
(-0.0612564 0.268195 0)
(-0.079021 0.287111 0)
(-0.0946701 0.294971 0)
(-0.107615 0.293852 0)
(-0.117687 0.285666 0)
(-0.12501 0.272075 0)
(-0.129889 0.254457 0)
(-0.13273 0.233912 0)
(-0.133977 0.211287 0)
(-0.134069 0.187216 0)
(-0.133416 0.162152 0)
(-0.132383 0.136408 0)
(-0.131282 0.11018 0)
(-0.130373 0.0835803 0)
(-0.129856 0.0566554 0)
(-0.129876 0.0294078 0)
(-0.130519 0.00181214 0)
(-0.131813 -0.0261683 0)
(-0.133723 -0.054565 0)
(-0.136147 -0.0833853 0)
(-0.138907 -0.112591 0)
(-0.141748 -0.142073 0)
(-0.14433 -0.171615 0)
(-0.146221 -0.200859 0)
(-0.146907 -0.229257 0)
(-0.145804 -0.256016 0)
(-0.142288 -0.280045 0)
(-0.135751 -0.299908 0)
(-0.125689 -0.313792 0)
(-0.111823 -0.319515 0)
(-0.0942626 -0.3146 0)
(-0.0736769 -0.29644 0)
(-0.051423 -0.262569 0)
(-0.0296136 -0.211026 0)
(-0.0115988 -0.140792 0)
(-0.00203213 -0.0523075 0)
(-0.00193848 0.0521298 0)
(-0.0108521 0.138883 0)
(-0.0272769 0.206391 0)
(-0.0466222 0.254989 0)
(-0.0657322 0.286483 0)
(-0.082781 0.303385 0)
(-0.0967155 0.308411 0)
(-0.107114 0.304158 0)
(-0.114031 0.292913 0)
(-0.117824 0.276575 0)
(-0.11901 0.256656 0)
(-0.11817 0.234307 0)
(-0.115884 0.210381 0)
(-0.112693 0.185478 0)
(-0.109078 0.160004 0)
(-0.105453 0.134212 0)
(-0.102166 0.10824 0)
(-0.0994951 0.0821371 0)
(-0.0976583 0.055892 0)
(-0.0968131 0.029448 0)
(-0.0970588 0.00272028 0)
(-0.0984362 -0.0243894 0)
(-0.100925 -0.0519783 0)
(-0.104436 -0.0801257 0)
(-0.108808 -0.108873 0)
(-0.11379 -0.138199 0)
(-0.119039 -0.167984 0)
(-0.1241 -0.197968 0)
(-0.128405 -0.227698 0)
(-0.131275 -0.256458 0)
(-0.131939 -0.283195 0)
(-0.12958 -0.306435 0)
(-0.123422 -0.324221 0)
(-0.112868 -0.334073 0)
(-0.0976977 -0.33302 0)
(-0.0783186 -0.317757 0)
(-0.0559807 -0.284951 0)
(-0.0329583 -0.231719 0)
(-0.0131965 -0.156255 0)