/*--------------------------------*- C++ -*----------------------------------*\
| =========                 |                                                 |
| \\      /  F ield         | OpenFOAM: The Open Source CFD Toolbox           |
|  \\    /   O peration     | Version:  2206                                  |
|   \\  /    A nd           | Website:  www.openfoam.com                      |
|    \\/     M anipulation  |                                                 |
\*---------------------------------------------------------------------------*/
FoamFile
{
    version     2.0;
    format      ascii;
    arch        "LSB;label=32;scalar=64";
    class       volScalarField;
    location    "0.1";
    object      T;
}
// * * * * * * * * * * * * * * * * * * * * * * * * * * * * * * * * * * * * * //

dimensions      [0 0 0 1 0 0 0];

internalField   nonuniform List<scalar> 
2500
(
295.036
264.904
254.934
250.37
247.617
246.426
245.674
244.851
244.123
243.646
243.376
243.191
243.005
242.795
242.579
242.379
242.212
242.085
241.995
241.934
241.895
241.871
241.857
241.849
241.844
241.842
241.842
241.842
241.844
241.847
241.852
241.861
241.874
241.895
241.924
241.965
242.02
242.093
242.186
242.303
242.452
242.644
242.899
243.251
243.755
244.513
245.765
248.152
253.705
270.07
325.135
295.053
278.624
268.949
262.493
258.981
256.517
254.183
252.243
250.944
250.141
249.543
248.952
248.318
247.679
247.097
246.613
246.242
245.975
245.795
245.678
245.605
245.562
245.537
245.523
245.517
245.514
245.515
245.52
245.529
245.545
245.57
245.61
245.669
245.755
245.876
246.04
246.253
246.526
246.87
247.302
247.859
248.597
249.603
251.009
253.033
256.119
261.23
270.255
286.49
335.018
311.474
295.126
283.926
275.691
270.478
266.523
262.977
260.133
258.189
256.896
255.867
254.85
253.79
252.749
251.811
251.036
250.441
250.012
249.719
249.528
249.408
249.336
249.294
249.271
249.259
249.254
249.255
249.262
249.276
249.3
249.34
249.402
249.497
249.635
249.829
250.092
250.436
250.873
251.418
252.099
252.968
254.11
255.651
257.749
260.609
264.575
270.399
279.332
292.112
339.663
321.211
306.358
295.159
286.247
280.086
275.174
270.804
267.308
264.848
263.115
261.669
260.242
258.784
257.375
256.118
255.082
254.286
253.71
253.314
253.054
252.889
252.789
252.73
252.697
252.679
252.672
252.672
252.68
252.697
252.727
252.778
252.859
252.982
253.164
253.422
253.771
254.227
254.803
255.516
256.396
257.503
258.932
260.826
263.373
266.798
271.325
277.162
284.755
294.546
342.518
327.798
314.705
304.214
295.33
288.818
283.411
278.544
274.602
271.742
269.63
267.81
266.013
264.201
262.468
260.933
259.67
258.698
257.991
257.503
257.181
256.975
256.849
256.774
256.731
256.707
256.697
256.696
256.704
256.722
256.756
256.814
256.907
257.052
257.266
257.572
257.99
258.534
259.221
260.064
261.096
262.372
263.973
265.988
268.524
271.792
276.13
281.665
288.161
295.873
343.665
331.249
319.894
310.41
301.935
295.443
289.857
284.73
280.502
277.346
274.927
272.793
270.681
268.567
266.561
264.79
263.335
262.213
261.395
260.828
260.45
260.208
260.058
259.968
259.916
259.887
259.874
259.871
259.878
259.896
259.931
259.991
260.09
260.246
260.48
260.818
261.282
261.89
262.653
263.585
264.719
266.125
267.901
270.117
272.776
275.923
279.866
284.851
290.473
296.734
344.38
333.688
323.89
315.423
307.484
301.198
295.618
290.389
285.999
282.642
279.993
277.611
275.246
272.888
270.66
268.697
267.084
265.839
264.929
264.294
263.87
263.596
263.425
263.322
263.262
263.228
263.211
263.206
263.211
263.227
263.261
263.319
263.417
263.575
263.815
264.167
264.656
265.3
266.105
267.076
268.232
269.641
271.42
273.674
276.389
279.468
283.043
287.377
292.186
297.351
345.239
336.128
327.603
319.999
312.58
306.566
301.097
295.875
291.42
287.945
285.142
282.58
280.025
277.481
275.08
272.967
271.229
269.885
268.9
268.21
267.747
267.447
267.259
267.145
267.077
267.039
267.019
267.011
267.014
267.027
267.057
267.11
267.201
267.35
267.583
267.931
268.422
269.078
269.906
270.896
272.045
273.387
275.029
277.1
279.632
282.51
285.717
289.426
293.499
297.807
346.021
338.191
330.606
323.671
316.708
310.989
305.694
300.555
296.113
292.596
289.707
287.03
284.344
281.665
279.138
276.912
275.08
273.659
272.616
271.883
271.389
271.067
270.865
270.741
270.667
270.625
270.602
270.592
270.592
270.602
270.626
270.671
270.751
270.884
271.096
271.419
271.889
272.531
273.358
274.359
275.512
276.817
278.333
280.177
282.421
285
287.847
291.033
294.498
298.144
346.525
339.548
332.617
326.204
319.648
314.238
309.164
304.169
299.804
296.306
293.391
290.655
287.889
285.122
282.507
280.201
278.299
276.823
275.735
274.969
274.451
274.112
273.898
273.767
273.688
273.642
273.617
273.605
273.602
273.609
273.627
273.663
273.728
273.839
274.02
274.303
274.725
275.319
276.107
277.088
278.237
279.531
280.986
282.674
284.672
286.965
289.495
292.273
295.265
298.402
346.794
340.351
333.91
327.945
321.782
316.699
311.884
307.079
302.839
299.409
296.515
293.764
290.961
288.143
285.472
283.113
281.163
279.647
278.527
277.736
277.2
276.849
276.626
276.488
276.405
276.357
276.329
276.315
276.311
276.314
276.327
276.354
276.403
276.49
276.635
276.868
277.223
277.737
278.442
279.348
280.443
281.701
283.109
284.694
286.51
288.566
290.826
293.277
295.89
298.613
346.972
340.939
334.938
329.406
323.643
318.907
314.377
309.792
305.709
302.38
299.54
296.808
293.998
291.157
288.456
286.064
284.084
282.54
281.398
280.59
280.041
279.68
279.45
279.308
279.222
279.171
279.142
279.127
279.12
279.121
279.129
279.147
279.183
279.247
279.357
279.536
279.815
280.232
280.82
281.602
282.579
283.734
285.047
286.517
288.167
290.007
292.016
294.172
296.449
298.804
347.16
341.545
335.994
330.904
325.547
321.165
316.93
312.577
308.667
305.457
302.692
300
297.204
294.361
291.647
289.238
287.239
285.679
284.522
283.702
283.144
282.776
282.541
282.396
282.307
282.255
282.225
282.208
282.2
282.199
282.203
282.215
282.24
282.284
282.362
282.492
282.7
283.016
283.475
284.104
284.916
285.906
287.059
288.362
289.817
291.426
293.172
295.034
296.984
298.988
347.384
342.226
337.139
332.488
327.528
323.491
319.542
315.418
311.681
308.596
305.914
303.273
300.504
297.671
294.957
292.541
290.533
288.962
287.796
286.969
286.405
286.032
285.794
285.646
285.556
285.502
285.471
285.454
285.445
285.442
285.443
285.451
285.467
285.496
285.549
285.638
285.784
286.011
286.348
286.822
287.453
288.245
289.192
290.281
291.506
292.858
294.324
295.881
297.505
299.165
347.624
342.932
338.294
334.056
329.463
325.743
322.057
318.142
314.567
311.601
309.002
306.415
303.678
300.862
298.154
295.738
293.727
292.152
290.981
290.149
289.581
289.205
288.965
288.815
288.724
288.669
288.638
288.62
288.61
288.606
288.605
288.609
288.619
288.638
288.672
288.73
288.828
288.982
289.217
289.554
290.015
290.611
291.341
292.199
293.175
294.26
295.439
296.693
298
299.333
347.849
343.588
339.35
335.475
331.202
327.756
324.297
320.565
317.132
314.272
311.749
309.214
306.51
303.714
301.016
298.604
296.593
295.016
293.843
293.008
292.438
292.06
291.818
291.667
291.575
291.52
291.488
291.47
291.46
291.455
291.453
291.455
291.46
291.471
291.493
291.529
291.592
291.692
291.848
292.076
292.396
292.819
293.351
293.989
294.728
295.557
296.465
297.435
298.448
299.483
348.038
344.138
340.232
336.655
332.645
329.423
326.152
322.572
319.257
316.486
314.029
311.539
308.866
306.089
303.402
300.996
298.988
297.411
296.237
295.401
294.829
294.451
294.208
294.056
293.964
293.908
293.876
293.857
293.847
293.841
293.839
293.839
293.842
293.848
293.861
293.883
293.922
293.985
294.083
294.232
294.443
294.73
295.098
295.55
296.082
296.688
297.357
298.078
298.836
299.613
348.183
344.563
340.914
337.569
333.763
330.716
327.591
324.131
320.91
318.212
315.808
313.357
310.71
307.95
305.274
302.874
300.868
299.293
298.119
297.283
296.711
296.332
296.089
295.936
295.843
295.788
295.755
295.736
295.726
295.72
295.717
295.716
295.718
295.721
295.728
295.741
295.764
295.802
295.863
295.955
296.09
296.275
296.52
296.825
297.192
297.616
298.091
298.607
299.154
299.719
348.288
344.869
341.407
338.233
334.578
331.662
328.647
325.277
322.129
319.486
317.125
314.704
312.078
309.333
306.666
304.272
302.27
300.696
299.523
298.687
298.114
297.735
297.492
297.339
297.246
297.19
297.157
297.138
297.128
297.122
297.119
297.118
297.118
297.12
297.123
297.131
297.144
297.166
297.202
297.258
297.34
297.457
297.612
297.811
298.054
298.34
298.665
299.022
299.404
299.802
348.358
345.078
341.745
338.69
335.142
332.32
329.385
326.081
322.986
320.385
318.055
315.657
313.049
310.315
307.656
305.266
303.267
301.695
300.523
299.688
299.115
298.736
298.492
298.339
298.246
298.19
298.157
298.138
298.128
298.122
298.118
298.117
298.117
298.117
298.119
298.123
298.131
298.143
298.164
298.197
298.246
298.316
298.412
298.537
298.693
298.879
299.093
299.332
299.591
299.864
348.403
345.213
341.966
338.991
335.517
332.759
329.879
326.622
323.564
320.993
318.686
316.306
313.71
310.985
308.332
305.947
303.95
302.38
301.208
300.373
299.801
299.422
299.178
299.025
298.932
298.876
298.843
298.824
298.813
298.807
298.804
298.802
298.801
298.802
298.803
298.805
298.809
298.816
298.827
298.846
298.874
298.916
298.973
299.05
299.146
299.264
299.401
299.557
299.727
299.909
348.431
345.297
342.105
339.182
335.755
333.041
330.198
326.972
323.941
321.391
319.1
316.733
314.146
311.427
308.778
306.396
304.402
302.833
301.662
300.827
300.255
299.876
299.632
299.48
299.386
299.33
299.297
299.278
299.267
299.261
299.258
299.256
299.255
299.255
299.256
299.257
299.259
299.263
299.269
299.279
299.295
299.319
299.353
299.398
299.456
299.528
299.614
299.713
299.822
299.941
348.447
345.347
342.189
339.298
335.902
333.215
330.398
327.192
324.178
321.643
319.363
317.004
314.424
311.71
309.065
306.685
304.692
303.124
301.953
301.119
300.547
300.168
299.925
299.772
299.678
299.622
299.589
299.57
299.56
299.553
299.55
299.548
299.547
299.547
299.547
299.548
299.549
299.551
299.554
299.56
299.569
299.582
299.601
299.627
299.662
299.705
299.757
299.818
299.887
299.962
348.456
345.376
342.238
339.367
335.989
333.32
330.518
327.326
324.324
321.798
319.526
317.172
314.596
311.886
309.243
306.865
304.873
303.306
302.136
301.302
300.73
300.351
300.108
299.955
299.862
299.806
299.773
299.753
299.743
299.737
299.733
299.731
299.73
299.73
299.73
299.73
299.731
299.732
299.733
299.736
299.741
299.749
299.759
299.774
299.794
299.819
299.85
299.887
299.929
299.976
348.461
345.392
342.265
339.406
336.04
333.381
330.589
327.406
324.411
321.89
319.623
317.274
314.701
311.993
309.352
306.975
304.984
303.417
302.247
301.414
300.842
300.463
300.22
300.067
299.974
299.918
299.885
299.866
299.855
299.849
299.845
299.843
299.842
299.842
299.842
299.842
299.842
299.842
299.843
299.845
299.848
299.852
299.857
299.866
299.877
299.891
299.91
299.931
299.957
299.985
348.464
345.4
342.279
339.427
336.067
333.415
330.629
327.451
324.461
321.944
319.681
317.334
314.763
312.056
309.416
307.04
305.05
303.483
302.314
301.481
300.909
300.53
300.287
300.134
300.041
299.985
299.952
299.933
299.922
299.916
299.912
299.911
299.91
299.909
299.909
299.909
299.909
299.909
299.91
299.91
299.912
299.914
299.917
299.921
299.928
299.936
299.946
299.959
299.974
299.991
348.465
345.403
342.286
339.436
336.08
333.432
330.649
327.475
324.488
321.975
319.713
317.369
314.799
312.093
309.454
307.078
305.088
303.522
302.353
301.52
300.949
300.57
300.326
300.174
300.08
300.024
299.991
299.972
299.961
299.955
299.952
299.95
299.949
299.949
299.948
299.948
299.948
299.948
299.949
299.949
299.95
299.951
299.952
299.955
299.958
299.963
299.969
299.976
299.985
299.995
348.465
345.403
342.286
339.438
336.084
333.437
330.657
327.486
324.501
321.99
319.73
317.387
314.819
312.114
309.476
307.1
305.111
303.545
302.376
301.543
300.971
300.593
300.349
300.197
300.103
300.047
300.014
299.995
299.984
299.978
299.975
299.973
299.972
299.971
299.971
299.971
299.971
299.971
299.971
299.971
299.972
299.972
299.973
299.974
299.976
299.979
299.982
299.986
299.991
299.997
348.463
345.4
342.281
339.432
336.079
333.434
330.655
327.486
324.504
321.995
319.737
317.396
314.829
312.125
309.487
307.112
305.123
303.557
302.389
301.556
300.984
300.606
300.362
300.21
300.116
300.06
300.027
300.008
299.997
299.991
299.988
299.986
299.985
299.984
299.984
299.984
299.984
299.984
299.984
299.984
299.984
299.985
299.985
299.986
299.987
299.988
299.99
299.992
299.995
299.998
348.461
345.392
342.27
339.419
336.064
333.419
330.643
327.476
324.497
321.991
319.736
317.397
314.832
312.13
309.493
307.119
305.13
303.564
302.396
301.563
300.991
300.613
300.369
300.217
300.123
300.067
300.035
300.015
300.005
299.999
299.995
299.993
299.992
299.992
299.991
299.991
299.991
299.991
299.991
299.991
299.991
299.992
299.992
299.992
299.993
299.993
299.994
299.996
299.997
299.999
348.456
345.379
342.25
339.394
336.036
333.391
330.616
327.452
324.478
321.977
319.727
317.392
314.83
312.129
309.494
307.121
305.133
303.568
302.4
301.567
300.995
300.617
300.373
300.221
300.128
300.072
300.039
300.02
300.009
300.003
299.999
299.997
299.996
299.996
299.996
299.995
299.995
299.995
299.995
299.995
299.995
299.995
299.995
299.996
299.996
299.996
299.997
299.998
299.998
299.999
348.449
345.358
342.217
339.352
335.988
333.341
330.567
327.408
324.44
321.947
319.705
317.377
314.82
312.124
309.492
307.12
305.133
303.569
302.401
301.569
300.997
300.619
300.376
300.223
300.13
300.074
300.041
300.022
300.011
300.005
300.001
300
299.999
299.998
299.998
299.998
299.998
299.997
299.997
299.997
299.997
299.998
299.998
299.998
299.998
299.998
299.998
299.999
299.999
300
348.438
345.325
342.165
339.284
335.911
333.258
330.485
327.332
324.374
321.893
319.664
317.347
314.8
312.111
309.484
307.116
305.131
303.568
302.401
301.569
300.998
300.62
300.377
300.224
300.131
300.075
300.042
300.023
300.012
300.006
300.003
300.001
300
299.999
299.999
299.999
299.999
299.999
299.999
299.999
299.999
299.999
299.999
299.999
299.999
299.999
299.999
299.999
300
300
348.421
345.276
342.086
339.181
335.79
333.128
330.354
327.208
324.264
321.801
319.591
317.294
314.763
312.086
309.468
307.107
305.126
303.566
302.4
301.569
300.998
300.62
300.377
300.225
300.132
300.076
300.043
300.024
300.013
300.007
300.003
300.001
300
300
300
299.999
299.999
299.999
299.999
299.999
299.999
299.999
299.999
299.999
299.999
299.999
299.999
300
300
300
348.397
345.204
341.971
339.03
335.611
332.933
330.154
327.014
324.087
321.65
319.47
317.203
314.698
312.043
309.44
307.089
305.116
303.56
302.397
301.567
300.998
300.62
300.377
300.225
300.132
300.076
300.043
300.024
300.013
300.007
300.004
300.002
300.001
300
300
300
300
300
300
300
300
300
300
300
300
300
300
300
300
300
348.363
345.103
341.809
338.815
335.356
332.651
329.861
326.725
323.817
321.414
319.277
317.054
314.59
311.968
309.391
307.059
305.097
303.549
302.391
301.564
300.996
300.619
300.377
300.225
300.132
300.076
300.043
300.024
300.013
300.007
300.004
300.002
300.001
300
300
300
300
300
300
300
300
300
300
300
300
300
300
300
300
300
348.317
344.967
341.59
338.524
335.009
332.265
329.453
326.315
323.426
321.062
318.981
316.82
314.417
311.847
309.31
307.007
305.065
303.53
302.38
301.558
300.993
300.618
300.376
300.225
300.132
300.076
300.043
300.024
300.013
300.007
300.004
300.002
300.001
300
300
300
300
300
300
300
300
300
300
300
300
300
300
300
300
300
348.256
344.789
341.303
338.144
334.555
331.758
328.917
325.768
322.891
320.567
318.552
316.473
314.153
311.658
309.182
306.923
305.013
303.498
302.361
301.547
300.987
300.614
300.374
300.224
300.131
300.076
300.043
300.024
300.013
300.007
300.004
300.002
300.001
300.001
300
300
300
300
300
300
300
300
300
300
300
300
300
300
300
300
348.179
344.561
340.939
337.664
333.983
331.123
328.246
325.078
322.202
319.911
317.965
315.983
313.771
311.377
308.986
306.794
304.931
303.448
302.331
301.53
300.977
300.609
300.372
300.222
300.13
300.075
300.043
300.024
300.013
300.007
300.004
300.002
300.001
300.001
300
300
300
300
300
300
300
300
300
300
300
300
300
300
300
300
348.081
344.275
340.485
337.07
333.28
330.346
327.437
324.253
321.367
319.094
317.21
315.332
313.247
310.982
308.705
306.603
304.807
303.371
302.285
301.503
300.962
300.601
300.367
300.22
300.129
300.075
300.043
300.024
300.013
300.007
300.004
300.002
300.001
300.001
300
300
300
300
300
300
300
300
300
300
300
300
300
300
300
300
347.957
343.915
339.917
336.336
332.42
329.401
326.473
323.296
320.406
318.136
316.297
314.518
312.57
310.456
308.321
306.337
304.631
303.259
302.216
301.462
300.938
300.587
300.359
300.216
300.127
300.074
300.042
300.024
300.013
300.007
300.004
300.002
300.001
300.001
300
300
300
300
300
300
300
300
300
300
300
300
300
300
300
300
347.797
343.451
339.193
335.414
331.356
328.229
325.299
322.177
319.319
317.057
315.249
313.555
311.745
309.796
307.824
305.984
304.392
303.104
302.119
301.403
300.903
300.567
300.348
300.21
300.124
300.072
300.041
300.023
300.013
300.007
300.004
300.002
300.001
300.001
300
300
300
300
300
300
300
300
300
300
300
300
300
300
300
300
347.584
342.836
338.241
334.223
330.022
326.749
323.817
320.809
318.056
315.845
314.076
312.461
310.784
309.007
307.216
305.541
304.085
302.9
301.99
301.323
300.856
300.539
300.332
300.201
300.119
300.069
300.04
300.022
300.013
300.007
300.004
300.002
300.001
300.001
300
300
300
300
300
300
300
300
300
300
300
300
300
300
300
300
347.291
341.997
336.957
332.645
328.344
324.903
321.938
319.083
316.519
314.438
312.755
311.236
309.699
308.099
306.501
305.009
303.709
302.646
301.824
301.219
300.792
300.502
300.311
300.188
300.112
300.065
300.038
300.021
300.012
300.007
300.004
300.002
300.001
300.001
300
300
300
300
300
300
300
300
300
300
300
300
300
300
300
300
346.871
340.826
335.209
330.522
326.23
322.687
319.676
316.973
314.649
312.774
311.242
309.861
308.486
307.078
305.688
304.393
303.265
302.34
301.621
301.089
300.712
300.453
300.282
300.172
300.103
300.06
300.035
300.02
300.011
300.006
300.003
300.002
300.001
300.001
300
300
300
300
300
300
300
300
300
300
300
300
300
300
300
300
346.239
339.139
332.826
327.668
323.507
320.064
317.11
314.575
312.5
310.863
309.528
308.327
307.145
305.951
304.783
303.702
302.76
301.987
301.383
300.934
300.614
300.393
300.246
300.151
300.091
300.053
300.031
300.018
300.01
300.006
300.003
300.002
300.001
300
300
300
300
300
300
300
300
300
300
300
300
300
300
300
300
300
345.196
336.568
329.521
323.895
319.891
316.778
314.131
311.902
310.128
308.754
307.645
306.654
305.69
304.73
303.801
302.945
302.202
301.591
301.113
300.756
300.499
300.322
300.202
300.125
300.075
300.045
300.026
300.015
300.009
300.005
300.003
300.001
300.001
300
300
300
300
300
300
300
300
300
300
300
300
300
300
300
300
300
343.207
332.309
324.668
319.031
315.279
312.624
310.519
308.811
307.472
306.439
305.602
304.856
304.138
303.432
302.756
302.137
301.601
301.161
300.815
300.556
300.37
300.239
300.152
300.094
300.057
300.034
300.02
300.012
300.007
300.004
300.002
300.001
300.001
300
300
300
300
300
300
300
300
300
300
300
300
300
300
300
300
300
338.579
324.787
317.223
312.704
309.865
307.939
306.511
305.418
304.585
303.946
303.425
302.959
302.513
302.079
301.667
301.293
300.97
300.705
300.497
300.341
300.227
300.148
300.094
300.059
300.036
300.022
300.013
300.007
300.004
300.002
300.001
300.001
300
300
300
300
300
300
300
300
300
300
300
300
300
300
300
300
300
300
324.942
311.258
306.573
304.545
303.439
302.721
302.207
301.828
301.546
301.332
301.155
300.996
300.844
300.696
300.556
300.431
300.323
300.234
300.165
300.113
300.076
300.05
300.032
300.02
300.012
300.007
300.004
300.003
300.001
300.001
300
300
300
300
300
300
300
300
300
300
300
300
300
300
300
300
300
300
300
300
)
;

boundaryField
{
    boundary1
    {
        type            fixedValue;
        value           uniform 350;
    }
    boundary2
    {
        type            fixedValue;
        value           uniform 300;
    }
    boundary3
    {
        type            fixedValue;
        value           uniform 300;
    }
    boundary4
    {
        type            fixedValue;
        value           uniform 240;
    }
    frontAndBack
    {
        type            empty;
    }
}


// ************************************************************************* //
