/*--------------------------------*- C++ -*----------------------------------*\
| =========                 |                                                 |
| \\      /  F ield         | OpenFOAM: The Open Source CFD Toolbox           |
|  \\    /   O peration     | Version:  2206                                  |
|   \\  /    A nd           | Website:  www.openfoam.com                      |
|    \\/     M anipulation  |                                                 |
\*---------------------------------------------------------------------------*/
FoamFile
{
    version     2.0;
    format      ascii;
    arch        "LSB;label=32;scalar=64";
    class       volScalarField;
    location    "0.3";
    object      p;
}
// * * * * * * * * * * * * * * * * * * * * * * * * * * * * * * * * * * * * * //

dimensions      [0 2 -2 0 0 0 0];

internalField   nonuniform List<scalar> 
1600
(
1.43234e-05
-0.00116726
-0.00389462
-0.00756711
-0.0115109
-0.0152301
-0.018367
-0.0206691
-0.0219691
-0.0221671
-0.0212176
-0.0191186
-0.0159036
-0.0116354
-0.0064015
-0.000309457
0.00651575
0.0139347
0.0217961
0.029939
0.0381953
0.0463924
0.054356
0.0619131
0.068896
0.0751463
0.0805194
0.0848892
0.0881543
0.0902432
0.0911211
0.0907966
0.0893301
0.0868425
0.0835271
0.079663
0.0756304
0.0719378
0.0692536
0.0681367
0.00121434
2.39782e-05
-0.00219161
-0.00504241
-0.00808462
-0.0109529
-0.0133627
-0.015101
-0.0160176
-0.0160166
-0.015048
-0.0131001
-0.010194
-0.00637778
-0.00172252
0.00368108
0.00972587
0.0162908
0.0232436
0.0304429
0.0377406
0.0449849
0.0520227
0.0587026
0.0648788
0.0704144
0.075186
0.079088
0.0820376
0.0839797
0.0848923
0.0847925
0.083742
0.0818538
0.0792986
0.0763103
0.0731907
0.0703157
0.0681335
0.067022
0.00395932
0.00223179
-1.45931e-05
-0.00257342
-0.00520154
-0.00762915
-0.00963273
-0.0110407
-0.0117273
-0.0116088
-0.0106393
-0.00880557
-0.00612294
-0.0026312
0.00160877
0.006518
0.012002
0.0179534
0.0242539
0.0307767
0.0373889
0.0439539
0.0503339
0.056393
0.0620005
0.0670345
0.0713854
0.0749607
0.0776883
0.0795219
0.0804449
0.080475
0.0796686
0.0781246
0.0759869
0.0734466
0.0707435
0.0681594
0.0659531
0.0643353
0.00772204
0.00511151
0.00247072
-0.000157721
-0.00271214
-0.00499282
-0.00682554
-0.00807857
-0.00865349
-0.0084835
-0.00753196
-0.00578952
-0.00327101
-1.26651e-05
0.00393055
0.00848727
0.0135719
0.0190869
0.0249243
0.0309683
0.037097
0.043185
0.0491055
0.0547334
0.0599484
0.064638
0.0687013
0.0720527
0.0746257
0.0763767
0.077289
0.0773758
0.0766834
0.0752937
0.0733234
0.0709245
0.0682893
0.0656327
0.0630421
0.0605741
0.0119095
0.0082712
0.00506266
0.00218262
-0.000474387
-0.00276467
-0.00455562
-0.00575257
-0.00628433
-0.00610257
-0.00518236
-0.00352078
-0.00113493
0.00193993
0.00565225
0.00993596
0.0147122
0.0198909
0.0253727
0.0310504
0.0368111
0.042538
0.0481129
0.053419
0.0583431
0.0627793
0.0666322
0.0698199
0.0722778
0.0739621
0.0748525
0.074955
0.074304
0.0729631
0.0710231
0.0686008
0.0658498
0.0629332
0.0597801
0.0563116
0.0160955
0.0113867
0.00751776
0.00426833
0.00138651
-0.00102696
-0.00287299
-0.00408957
-0.00463094
-0.00446707
-0.00358567
-0.00199174
0.000293478
0.00323372
0.00677882
0.010866
0.0154211
0.0203598
0.0255891
0.0310084
0.0365116
0.0419885
0.0473271
0.0524161
0.0571473
0.0614184
0.0651365
0.0682206
0.0706054
0.0722438
0.0731098
0.0732004
0.072537
0.0711656
0.0691532
0.0665867
0.0635901
0.0602882
0.0564729
0.0519534
0.0199712
0.0141967
0.00962092
0.00592612
0.00273479
0.000116274
-0.00185631
-0.00314872
-0.0037379
-0.00361109
-0.00276866
-0.00122433
0.000995317
0.00385148
0.00729376
0.0112609
0.0156818
0.0204759
0.0255546
0.0308223
0.0361774
0.0415144
0.0467251
0.0517016
0.0563379
0.0605331
0.0641941
0.0672383
0.069597
0.0712179
0.0720671
0.0721315
0.0714194
0.0699598
0.0677994
0.0650005
0.0616655
0.0578939
0.0533608
0.0477861
0.0233034
0.0164875
0.011187
0.00700334
0.00344996
0.000573717
-0.00157194
-0.00297603
-0.00363538
-0.003553
-0.00274145
-0.00122343
0.000968438
0.00379177
0.00719467
0.0111161
0.0154863
0.0202272
0.0252531
0.0304711
0.0357829
0.0410854
0.0462727
0.0512379
0.0558753
0.060083
0.0637654
0.0668364
0.0692215
0.0708613
0.0717128
0.0717517
0.070973
0.0693907
0.0670333
0.0639437
0.0602098
0.0559152
0.0506357
0.0440179
0.0259102
0.01808
0.0120517
0.00735674
0.00341167
0.000247255
-0.00209783
-0.00363204
-0.00436957
-0.00432765
-0.00353041
-0.00200942
0.000196239
0.00303991
0.00646732
0.0104165
0.014818
0.0195947
0.0246622
0.0299297
0.0352998
0.0406708
0.045937
0.0509909
0.0557252
0.060035
0.0638206
0.0669897
0.0694608
0.0711653
0.0720501
0.0720788
0.0712333
0.0695134
0.066932
0.0635165
0.059346
0.0544956
0.0484534
0.0408042
0.0276412
0.0188185
0.0120653
0.00684937
0.00249844
-0.000968302
-0.00352337
-0.00519172
-0.00600282
-0.00598691
-0.00517896
-0.00361928
-0.0013536
0.00156672
0.00508429
0.00913545
0.0136499
0.0185506
0.0237535
0.0291681
0.0346974
0.0402391
0.0456865
0.0509301
0.0558593
0.0603644
0.0643396
0.0676852
0.0703104
0.0721361
0.0730976
0.0731457
0.0722492
0.070394
0.0675796
0.0638207
0.0591915
0.0537641
0.0469465
0.038268
0.0283635
0.0185616
0.0110873
0.00534816
0.000587807
-0.00318321
-0.00594613
-0.00774041
-0.00860932
-0.00859513
-0.00774319
-0.00610239
-0.00372519
-0.000668062
0.00300803
0.00723702
0.0119472
0.0170605
0.0224925
0.0281521
0.0339415
0.039757
0.0454896
0.0510265
0.0562521
0.0610509
0.065309
0.0689175
0.0717748
0.0737899
0.0748846
0.0749963
0.0740796
0.0721073
0.0690659
0.0649597
0.0598608
0.0538418
0.0462344
0.0365152
0.0279517
0.0171742
0.00898088
0.00272049
-0.00244538
-0.00651316
-0.00947135
-0.0113727
-0.0122735
-0.0122274
-0.0112901
-0.00951873
-0.00697284
-0.00371421
0.000192177
0.00467737
0.00966759
0.0150835
0.0208393
0.0268429
0.0329948
0.0391891
0.0453137
0.0512511
0.05688
0.0620771
0.0667195
0.0706872
0.0738661
0.0761512
0.0774497
0.0776838
0.0767932
0.0747366
0.0714882
0.0670423
0.0614708
0.0548491
0.0464331
0.035647
0.0262803
0.0145212
0.00560811
-0.00116917
-0.00673114
-0.0110805
-0.0142123
-0.0161923
-0.0170894
-0.0169688
-0.0158962
-0.0139377
-0.0111598
-0.00762987
-0.00341738
0.00140554
0.00676273
0.012573
0.0187493
0.0251975
0.0318165
0.0384974
0.0451243
0.0515745
0.0577196
0.0634277
0.0685652
0.0729994
0.076602
0.0792521
0.0808401
0.0812711
0.0804684
0.0783754
0.074953
0.0701855
0.0641454
0.056912
0.0476628
0.0357685
0.0232185
0.0104628
0.00082579
-0.00646256
-0.0124066
-0.0170154
-0.0202908
-0.0223117
-0.0231601
-0.0229131
-0.0216469
-0.0194367
-0.0163566
-0.01248
-0.00788098
-0.00263512
0.0031789
0.00947801
0.0161734
0.0231694
0.0303627
0.0376415
0.0448855
0.0519662
0.0587477
0.0650884
0.0708424
0.075863
0.0800054
0.0831309
0.0851108
0.0858305
0.0851944
0.0831286
0.079579
0.0745187
0.0680205
0.0601676
0.0500548
0.0369964
0.0186258
0.00484987
-0.00551835
-0.0133107
-0.0196186
-0.024458
-0.0278383
-0.0298527
-0.0305972
-0.0301619
-0.0286343
-0.0260994
-0.0226396
-0.0183346
-0.0132634
-0.00750514
-0.00114105
0.00574403
0.0130599
0.0207094
0.0285871
0.0365786
0.0445591
0.0523944
0.0599404
0.0670447
0.0735485
0.0792891
0.0841035
0.0878324
0.090325
0.0914442
0.0910722
0.0891148
0.0854998
0.080187
0.0732483
0.0647704
0.0537583
0.0394657
0.0123489
-0.00247933
-0.0135893
-0.0218772
-0.0285259
-0.0335596
-0.0369966
-0.0389463
-0.0395205
-0.0388237
-0.0369562
-0.0340141
-0.0300885
-0.0252662
-0.0196314
-0.0132666
-0.00625555
0.00131566
0.00935582
0.0177669
0.0264422
0.0352647
0.0441061
0.0528261
0.0612726
0.0692821
0.0766817
0.0832911
0.0889269
0.0934064
0.0965536
0.0982049
0.098216
0.0964682
0.0928673
0.0873561
0.0800035
0.0708978
0.0589458
0.0433354
0.00421766
-0.0117034
-0.0235688
-0.0323417
-0.0393021
-0.0444847
-0.047919
-0.0497329
-0.0500571
-0.0490124
-0.0467143
-0.043271
-0.0387839
-0.0333473
-0.0270507
-0.0199803
-0.0122213
-0.00386091
0.00500976
0.0142927
0.0238809
0.033656
0.0434868
0.0532279
0.0627191
0.0717859
0.0802404
0.0878836
0.0945093
0.0999085
0.103876
0.106216
0.106755
0.105341
0.101855
0.0962164
0.0884876
0.0787564
0.0658201
0.0487953
-0.00595742
-0.0230216
-0.035659
-0.0449033
-0.0521388
-0.0574134
-0.0607712
-0.0623626
-0.0623404
-0.0608456
-0.058011
-0.0539594
-0.0488035
-0.0426461
-0.0355823
-0.0277012
-0.0190896
-0.00983418
-2.4922e-05
0.0102417
0.0208597
0.0317111
0.0426632
0.0535667
0.0642544
0.074541
0.0842233
0.0930825
0.100887
0.107399
0.112379
0.115595
0.116833
0.115908
0.112662
0.106988
0.0989359
0.0885889
0.0746215
0.0560721
-0.0183899
-0.036659
-0.0500883
-0.0597856
-0.067249
-0.0725436
-0.0757327
-0.0769945
-0.0765092
-0.074442
-0.0709468
-0.0661635
-0.0602179
-0.0532222
-0.045277
-0.0364745
-0.0269013
-0.0166427
-0.00578575
0.00557658
0.0173417
0.0293939
0.0416012
0.0538123
0.0658547
0.0775331
0.0886296
0.0989045
0.1081
0.115944
0.122158
0.126469
0.128616
0.128366
0.125519
0.119928
0.111624
0.100682
0.0856353
0.0654374
-0.0333223
-0.0528729
-0.0671172
-0.0772422
-0.0848717
-0.0900939
-0.0929978
-0.0937968
-0.0927051
-0.0899183
-0.0856155
-0.0799574
-0.0730848
-0.0651202
-0.05617
-0.0463284
-0.035681
-0.0243095
-0.0122958
0.000273263
0.0133011
0.0266773
0.0402735
0.0539393
0.067499
0.0807495
0.0934591
0.105367
0.116188
0.125612
0.133319
0.138982
0.142286
0.142941
0.14069
0.135334
0.126878
0.115375
0.0992022
0.0772168
-0.0510329
-0.0719605
-0.0870468
-0.0975638
-0.105277
-0.110307
-0.112776
-0.112945
-0.11107
-0.107384
-0.102099
-0.0953983
-0.0874416
-0.0783624
-0.0682728
-0.0572677
-0.04543
-0.0328352
-0.0195572
-0.00567368
0.00872855
0.0235482
0.038664
0.0539302
0.0691718
0.0841807
0.0987134
0.11249
0.125194
0.136478
0.145972
0.153289
0.158049
0.15989
0.158481
0.153558
0.145081
0.133074
0.11573
0.0918013
-0.0718457
-0.0942712
-0.11023
-0.121088
-0.128775
-0.133453
-0.135296
-0.13462
-0.13174
-0.126936
-0.120458
-0.112518
-0.103297
-0.0929402
-0.0815646
-0.0692648
-0.0561178
-0.0421903
-0.0275443
-0.0122443
0.00363707
0.020012
0.0367716
0.0537794
0.0708656
0.0878216
0.104396
0.12029
0.13516
0.148618
0.160236
0.169562
0.176135
0.179504
0.179246
0.17501
0.166691
0.154265
0.135712
0.109662
-0.0961439
-0.120223
-0.137089
-0.148213
-0.15572
-0.159836
-0.160799
-0.159006
-0.154843
-0.14865
-0.140724
-0.131313
-0.12062
-0.108803
-0.0959825
-0.0822498
-0.0676734
-0.0523066
-0.0361955
-0.0193859
-0.00193155
0.0160992
0.0346155
0.0534963
0.0725833
0.0916732
0.110512
0.128787
0.146129
0.162107
0.176234
0.187982
0.196795
0.202113
0.203396
0.200173
0.192252
0.179534
0.159742
0.131369
-0.124391
-0.150324
-0.168134
-0.179414
-0.186529
-0.189794
-0.189545
-0.186283
-0.180485
-0.172569
-0.162888
-0.151732
-0.139328
-0.125846
-0.111409
-0.0961005
-0.0799753
-0.0630688
-0.0454052
-0.0270063
-0.00790036
0.0118702
0.0322394
0.0531094
0.0743409
0.0957439
0.117069
0.137997
0.158137
0.177017
0.19409
0.208741
0.220304
0.228087
0.231401
0.229619
0.222419
0.209594
0.188549
0.157617
-0.157158
-0.18521
-0.203997
-0.215266
-0.221688
-0.223712
-0.221807
-0.216616
-0.208739
-0.198686
-0.18688
-0.173658
-0.159271
-0.143899
-0.127662
-0.110631
-0.0928421
-0.0743054
-0.0550168
-0.0349671
-0.0141519
0.00741987
0.0297154
0.0526685
0.0761685
0.100049
0.124074
0.14793
0.17121
0.193408
0.213918
0.23203
0.246953
0.257838
0.263804
0.264021
0.257983
0.245318
0.223032
0.189263
-0.195171
-0.225688
-0.245474
-0.256476
-0.261774
-0.262015
-0.257862
-0.250148
-0.239627
-0.226929
-0.212555
-0.196891
-0.180214
-0.162706
-0.144478
-0.125582
-0.106024
-0.0857827
-0.0648172
-0.0430795
-0.0205245
0.00288053
0.0271453
0.0522454
0.0781097
0.104607
0.131531
0.158582
0.185355
0.21132
0.235813
0.258031
0.277044
0.291814
0.301225
0.304175
0.299903
0.287788
0.264316
0.227373
-0.239375
-0.272813
-0.293586
-0.303922
-0.307471
-0.305177
-0.297981
-0.286969
-0.273096
-0.25713
-0.239663
-0.221129
-0.201821
-0.181918
-0.161508
-0.140612
-0.119197
-0.0972002
-0.0745342
-0.0511033
-0.0268129
-0.00157945
0.024659
0.0519307
0.0802173
0.109437
0.139429
0.169929
0.200548
0.230751
0.259831
0.286896
0.310868
0.330491
0.34436
0.351022
0.349353
0.338362
0.313831
0.273301
-0.291039
-0.327994
-0.349666
-0.358706
-0.359588
-0.35371
-0.342401
-0.327089
-0.308976
-0.288992
-0.267821
-0.245937
-0.223635
-0.201073
-0.178301
-0.155292
-0.131962
-0.108192
-0.0838395
-0.0587508
-0.0327727
-0.00576118
0.0224078
0.0518272
0.0825449
0.114547
0.147735
0.181904
0.21671
0.251636
0.285959
0.318714
0.348676
0.37435
0.393982
0.405666
0.407775
0.398764
0.37343
0.328801
-0.35192
-0.393167
-0.415485
-0.422222
-0.419077
-0.408136
-0.391281
-0.37038
-0.346933
-0.322044
-0.296478
-0.270726
-0.245061
-0.219591
-0.194305
-0.169108
-0.143848
-0.118335
-0.0923582
-0.0656977
-0.0381319
-0.00944746
0.020552
0.0520357
0.0851325
0.119913
0.156369
0.19438
0.23368
0.273812
0.314074
0.353464
0.39063
0.423831
0.45091
0.469387
0.476947
0.471219
0.445566
0.396207
-0.424542
-0.471047
-0.493427
-0.496224
-0.487021
-0.468942
-0.444628
-0.416502
-0.386399
-0.355583
-0.32487
-0.294723
-0.265347
-0.236765
-0.208869
-0.18147
-0.154326
-0.127161
-0.0996859
-0.0716015
-0.0426106
-0.0124224
0.0192407
0.052635
0.0879847
0.125465
0.165181
0.207132
0.251176
0.296965
0.343879
0.390941
0.436723
0.47926
0.515957
0.543635
0.559055
0.558627
0.533566
0.478728
-0.512671
-0.565552
-0.586728
-0.5829
-0.564594
-0.536468
-0.502171
-0.464783
-0.426471
-0.388608
-0.351978
-0.316946
-0.283583
-0.251767
-0.221254
-0.191728
-0.162831
-0.134189
-0.105416
-0.0761293
-0.0459483
-0.0144988
0.0185847
0.0536546
0.0910427
0.131048
0.173914
0.219803
0.268743
0.320566
0.37482
0.430649
0.48665
0.540713
0.589816
0.629979
0.656762
0.664814
0.64207
0.580965
-0.622179
-0.68245
-0.699791
-0.684903
-0.652924
-0.610711
-0.563166
-0.514057
-0.465798
-0.419734
-0.376484
-0.336193
-0.2987
-0.263669
-0.230665
-0.199208
-0.168803
-0.138954
-0.109176
-0.0789933
-0.0479386
-0.0155516
0.018624
0.0550421
0.0941517
0.13639
0.18217
0.231849
0.28569
0.343789
0.405975
0.471657
0.539629
0.607802
0.672846
0.729957
0.773234
0.794851
0.77771
0.709833
-0.762685
-0.830419
-0.838554
-0.805264
-0.752802
-0.690985
-0.62609
-0.562436
-0.502427
-0.447119
-0.39674
-0.351039
-0.309499
-0.271478
-0.236292
-0.203259
-0.171723
-0.141059
-0.110671
-0.0799916
-0.0484675
-0.0155546
0.019293
0.0566303
0.0970277
0.141072
0.189364
0.242497
0.30103
0.365421
0.43592
0.512408
0.594134
0.679342
0.764703
0.84476
0.91203
0.955411
0.950204
0.876322
-0.950877
-1.02273
-1.01075
-0.946955
-0.864037
-0.775319
-0.688189
-0.607007
-0.533635
-0.468383
-0.410756
-0.35987
-0.314698
-0.274195
-0.23737
-0.20331
-0.171181
-0.140221
-0.10973
-0.0790502
-0.0475516
-0.0146138
0.02039
0.0581092
0.0992313
0.144495
0.194699
0.250704
0.31342
0.383766
0.462582
0.550473
0.647523
0.752824
0.863659
0.974515
1.07662
1.15502
1.17409
1.09906
-1.21726
-1.27969
-1.22551
-1.11153
-0.984047
-0.859343
-0.744725
-0.643399
-0.555711
-0.48054
-0.41621
-0.36093
-0.312998
-0.270885
-0.233249
-0.198929
-0.166915
-0.136317
-0.106341
-0.0762547
-0.0453651
-0.012992
0.0215564
0.0590079
0.100152
0.145867
0.197148
0.25513
0.321113
0.396559
0.483065
0.58225
0.695522
0.823572
0.965386
1.11674
1.26888
1.40353
1.47118
1.41138
-1.61782
-1.63095
-1.49153
-1.2967
-1.10586
-0.934975
-0.788283
-0.665517
-0.563955
-0.480112
-0.410613
-0.352489
-0.30324
-0.260805
-0.223491
-0.189904
-0.15888
-0.129429
-0.100686
-0.0718692
-0.0422477
-0.0111049
0.0222908
0.0587198
0.0990462
0.144259
0.19552
0.254219
0.322042
0.401036
0.493671
0.60286
0.731873
0.883988
1.06157
1.26424
1.48653
1.71013
1.87245
1.87294
-2.25455
-2.11587
-1.81355
-1.49438
-1.21739
-0.990485
-0.809387
-0.666425
-0.553598
-0.463987
-0.392041
-0.333446
-0.284878
-0.243779
-0.208163
-0.176459
-0.147403
-0.119948
-0.0931979
-0.0663579
-0.0386888
-0.0094693
0.0220403
0.0566369
0.0952185
0.138837
0.188765
0.246586
0.314308
0.394519
0.490581
0.60687
0.749001
0.923954
1.13979
1.40421
1.72093
2.07938
2.41789
2.58929
-3.35544
-2.78359
-2.17261
-1.67569
-1.2925
-1.00568
-0.794104
-0.637235
-0.519295
-0.429143
-0.358944
-0.303156
-0.257812
-0.220034
-0.187678
-0.159112
-0.133055
-0.108469
-0.084482
-0.0603252
-0.0352907
-0.00868883
0.0201899
0.0521155
0.0879663
0.128789
0.175879
0.230894
0.296015
0.374185
0.469465
0.587555
0.73653
0.927889
1.17796
1.50831
1.94086
2.49101
3.15844
3.794
-5.51667
-3.66384
-2.43112
-1.71379
-1.24157
-0.921674
-0.704753
-0.553878
-0.445421
-0.365152
-0.304139
-0.25653
-0.218367
-0.186888
-0.160099
-0.136508
-0.114961
-0.0945329
-0.0744481
-0.0540287
-0.03265
-0.00970419
0.0154349
0.0434486
0.075118
0.111381
0.153409
0.202724
0.26137
0.332188
0.41926
0.528645
0.66963
0.856999
1.11531
1.48374
2.01565
2.80564
4.12661
6.08722
-9.19968
-4.52201
-2.3066
-1.42105
-0.958963
-0.682962
-0.512285
-0.400598
-0.322921
-0.266416
-0.223888
-0.190906
-0.164561
-0.142843
-0.124297
-0.107823
-0.0925628
-0.0778176
-0.0629971
-0.0475803
-0.0310843
-0.0130379
0.00704386
0.0296866
0.0554891
0.0851642
0.119596
0.159923
0.207666
0.264935
0.334792
0.421902
0.533814
0.683818
0.897543
1.22418
1.75386
2.73371
5.06392
9.86193
)
;

boundaryField
{
    movingWall
    {
        type            zeroGradient;
    }
    fixedWalls
    {
        type            zeroGradient;
    }
    frontAndBack
    {
        type            empty;
    }
}


// ************************************************************************* //
