/*--------------------------------*- C++ -*----------------------------------*\
| =========                 |                                                 |
| \\      /  F ield         | OpenFOAM: The Open Source CFD Toolbox           |
|  \\    /   O peration     | Version:  2206                                  |
|   \\  /    A nd           | Website:  www.openfoam.com                      |
|    \\/     M anipulation  |                                                 |
\*---------------------------------------------------------------------------*/
FoamFile
{
    version     2.0;
    format      ascii;
    arch        "LSB;label=32;scalar=64";
    class       surfaceScalarField;
    location    "0.3";
    object      phi;
}
// * * * * * * * * * * * * * * * * * * * * * * * * * * * * * * * * * * * * * //

dimensions      [0 3 -1 0 0 0 0];

oriented        oriented;

internalField   nonuniform List<scalar> 
3120
(
2.52525e-09
-2.55735e-09
4.09076e-09
-1.56554e-09
2.24959e-09
1.84123e-09
-3.5568e-09
5.80646e-09
-1.31383e-08
9.58147e-09
-2.59858e-08
1.28475e-08
-4.14599e-08
1.5474e-08
-5.88841e-08
1.74242e-08
-7.75908e-08
1.87067e-08
-9.69433e-08
1.93525e-08
-1.16347e-07
1.9404e-08
-1.35257e-07
1.89095e-08
-1.53177e-07
1.79203e-08
-1.69666e-07
1.64889e-08
-1.84335e-07
1.46688e-08
-1.96848e-07
1.25136e-08
-2.06926e-07
1.00776e-08
-2.14342e-07
7.41581e-09
-2.18926e-07
4.58455e-09
-2.20568e-07
1.64161e-09
-2.19214e-07
-1.35316e-09
-2.14877e-07
-4.33769e-09
-2.07629e-07
-7.24754e-09
-1.97613e-07
-1.00161e-08
-1.85038e-07
-1.2575e-08
-1.70183e-07
-1.48546e-08
-1.53398e-07
-1.67856e-08
-1.35098e-07
-1.82994e-08
-1.15768e-07
-1.93305e-08
-9.59502e-08
-1.98178e-08
-7.62431e-08
-1.97072e-08
-5.72891e-08
-1.8954e-08
-3.97629e-08
-1.75262e-08
-2.4352e-08
-1.54109e-08
-1.17285e-08
-1.26235e-08
-2.49815e-09
-9.23029e-09
2.89521e-09
-5.39334e-09
4.35653e-09
-1.46141e-09
2.56069e-09
1.79557e-09
2.56046e-09
1.60974e-09
-4.16712e-09
-1.17797e-09
1.22236e-09
-1.1721e-08
1.23845e-08
-3.10784e-08
2.51638e-08
-5.90489e-08
3.75518e-08
-9.46888e-08
4.84874e-08
-1.36649e-07
5.74342e-08
-1.8339e-07
6.41652e-08
-2.33312e-07
6.86288e-08
-2.84834e-07
7.08747e-08
-3.36442e-07
7.10122e-08
-3.86719e-07
6.91867e-08
-4.34364e-07
6.55653e-08
-4.78204e-07
6.03283e-08
-5.17199e-07
5.36642e-08
-5.50453e-07
4.57674e-08
-5.77213e-07
3.68372e-08
-5.96874e-07
2.70776e-08
-6.08988e-07
1.6698e-08
-6.1326e-07
5.91438e-09
-6.09563e-07
-5.05061e-09
-5.97934e-07
-1.59666e-08
-5.78585e-07
-2.6596e-08
-5.51907e-07
-3.66947e-08
-5.18468e-07
-4.60139e-08
-4.79019e-07
-5.43032e-08
-4.3449e-07
-6.13143e-08
-3.85984e-07
-6.6806e-08
-3.34763e-07
-7.05509e-08
-2.82238e-07
-7.23432e-08
-2.29938e-07
-7.20075e-08
-1.79481e-07
-6.9411e-08
-1.32528e-07
-6.44797e-08
-9.07173e-08
-5.72211e-08
-5.55774e-08
-4.77634e-08
-2.83849e-08
-3.64229e-08
-9.95018e-09
-2.38279e-08
-2.91789e-10
-1.11194e-08
1.85368e-09
-3.49335e-10
4.41395e-09
-1.67031e-09
-2.49676e-09
-1.21214e-08
1.16736e-08
-3.40946e-08
3.43578e-08
-6.84535e-08
5.95226e-08
-1.14785e-07
8.3883e-08
-1.71803e-07
1.05506e-07
-2.37675e-07
1.23306e-07
-3.10264e-07
1.36754e-07
-3.87301e-07
1.45666e-07
-4.66502e-07
1.50076e-07
-5.45647e-07
1.50157e-07
-6.22635e-07
1.46174e-07
-6.95518e-07
1.38449e-07
-7.62531e-07
1.27341e-07
-8.22102e-07
1.13236e-07
-8.72872e-07
9.6537e-08
-9.13697e-07
7.76625e-08
-9.43663e-07
5.70434e-08
-9.62088e-07
3.51235e-08
-9.68535e-07
1.23608e-08
-9.62813e-07
-1.07723e-08
-9.44991e-07
-3.37886e-08
-9.154e-07
-5.61872e-08
-8.74639e-07
-7.74556e-08
-8.23579e-07
-9.7074e-08
-7.6336e-07
-1.14522e-07
-6.95386e-07
-1.29288e-07
-6.21315e-07
-1.40878e-07
-5.43034e-07
-1.48832e-07
-4.62634e-07
-1.52742e-07
-3.8237e-07
-1.52271e-07
-3.04601e-07
-1.4718e-07
-2.31719e-07
-1.37362e-07
-1.66047e-07
-1.22893e-07
-1.09709e-07
-1.04101e-07
-6.44497e-08
-8.16827e-08
-3.13848e-08
-5.68931e-08
-1.06931e-08
-3.18113e-08
-1.23881e-09
-9.8033e-09
3.17508e-09
-5.57033e-09
3.07369e-09
-2.49807e-08
3.1084e-08
-5.96881e-08
6.90651e-08
-1.09869e-07
1.09703e-07
-1.74632e-07
1.48646e-07
-2.52271e-07
1.83145e-07
-3.40515e-07
2.1155e-07
-4.36746e-07
2.32985e-07
-5.38175e-07
2.47095e-07
-6.41973e-07
2.53873e-07
-7.45369e-07
2.53554e-07
-8.45724e-07
2.46529e-07
-9.40576e-07
2.33302e-07
-1.02768e-06
2.14449e-07
-1.10505e-06
1.90599e-07
-1.17093e-06
1.62418e-07
-1.22387e-06
1.30603e-07
-1.2627e-06
9.5873e-08
-1.28655e-06
5.89745e-08
-1.29486e-06
2.0676e-08
-1.28741e-06
-1.82295e-08
-1.26427e-06
-5.69255e-08
-1.22588e-06
-9.45743e-08
-1.17302e-06
-1.30322e-07
-1.10679e-06
-1.63304e-07
-1.02865e-06
-1.9266e-07
-9.40389e-07
-2.17547e-07
-8.44108e-07
-2.37158e-07
-7.42192e-07
-2.50748e-07
-6.37272e-07
-2.57663e-07
-5.32169e-07
-2.57375e-07
-4.29821e-07
-2.49528e-07
-3.33191e-07
-2.33993e-07
-2.4514e-07
-2.10944e-07
-1.68283e-07
-1.80958e-07
-1.04796e-07
-1.45169e-07
-5.61977e-08
-1.05492e-07
-2.31014e-08
-6.49078e-08
-4.98677e-09
-2.79179e-08
-1.81167e-09
-9.46929e-09
1.25431e-08
-3.81754e-08
5.979e-08
-8.60766e-08
1.16966e-07
-1.52387e-07
1.76013e-07
-2.35538e-07
2.31797e-07
-3.33291e-07
2.80899e-07
-4.42909e-07
3.21168e-07
-5.61326e-07
3.51402e-07
-6.85305e-07
3.71073e-07
-8.11568e-07
3.80136e-07
-9.369e-07
3.78885e-07
-1.05823e-06
3.67856e-07
-1.17268e-06
3.47752e-07
-1.27763e-06
3.19398e-07
-1.37073e-06
2.83702e-07
-1.44995e-06
2.41636e-07
-1.51357e-06
1.94221e-07
-1.56021e-06
1.42517e-07
-1.58886e-06
8.76241e-08
-1.59886e-06
3.06771e-08
-1.58994e-06
-2.71534e-08
-1.5622e-06
-8.46637e-08
-1.51615e-06
-1.40621e-07
-1.4527e-06
-1.9377e-07
-1.37316e-06
-2.42845e-07
-1.27923e-06
-2.86589e-07
-1.17301e-06
-3.23773e-07
-1.05694e-06
-3.53227e-07
-9.33812e-07
-3.73876e-07
-8.0669e-07
-3.84785e-07
-6.78854e-07
-3.8521e-07
-5.53718e-07
-3.74664e-07
-4.34721e-07
-3.5299e-07
-3.25198e-07
-3.20466e-07
-2.2823e-07
-2.77926e-07
-1.46466e-07
-2.26933e-07
-8.19417e-08
-1.70016e-07
-3.59149e-08
-1.10935e-07
-8.75596e-09
-5.50769e-08
-1.05676e-08
-1.31627e-08
2.57057e-08
-5.10269e-08
9.76542e-08
-1.1209e-07
1.78029e-07
-1.94494e-07
2.58417e-07
-2.95864e-07
3.33167e-07
-4.13335e-07
3.9837e-07
-5.43649e-07
4.51483e-07
-6.83283e-07
4.91036e-07
-8.28576e-07
5.16367e-07
-9.75853e-07
5.27413e-07
-1.12152e-06
5.2455e-07
-1.26214e-06
5.08474e-07
-1.3945e-06
4.80117e-07
-1.51568e-06
4.40577e-07
-1.62305e-06
3.91073e-07
-1.71433e-06
3.32918e-07
-1.7876e-06
2.67493e-07
-1.84133e-06
1.96241e-07
-1.87436e-06
1.20657e-07
-1.88597e-06
4.22844e-08
-1.87584e-06
-3.72846e-08
-1.84409e-06
-1.16414e-07
-1.79128e-06
-1.93429e-07
-1.71842e-06
-2.66628e-07
-1.62697e-06
-3.34298e-07
-1.51882e-06
-3.94736e-07
-1.39631e-06
-4.46285e-07
-1.26217e-06
-4.87367e-07
-1.11951e-06
-5.16539e-07
-9.71744e-07
-5.32547e-07
-8.22553e-07
-5.34402e-07
-6.75759e-07
-5.21457e-07
-5.35239e-07
-4.9351e-07
-4.04787e-07
-4.50918e-07
-2.87969e-07
-3.94744e-07
-1.87971e-07
-3.26931e-07
-1.07455e-07
-2.50532e-07
-4.84508e-08
-1.69939e-07
-1.23358e-08
-9.11919e-08
-2.29034e-08
-1.66103e-08
4.23159e-08
-6.3309e-08
1.44353e-07
-1.37266e-07
2.51987e-07
-2.35539e-07
3.56689e-07
-3.54883e-07
4.52512e-07
-4.91737e-07
5.35223e-07
-6.42267e-07
6.02013e-07
-8.02466e-07
6.51234e-07
-9.68251e-07
6.82151e-07
-1.13556e-06
6.94727e-07
-1.30047e-06
6.89455e-07
-1.45922e-06
6.67227e-07
-1.60833e-06
6.29227e-07
-1.74461e-06
5.76857e-07
-1.86522e-06
5.11679e-07
-1.96767e-06
4.35373e-07
-2.0499e-06
3.49716e-07
-2.11021e-06
2.5656e-07
-2.14738e-06
1.57828e-07
-2.16061e-06
5.55047e-08
-2.14953e-06
-4.83627e-08
-2.11427e-06
-1.51672e-07
-2.05542e-06
-2.52274e-07
-1.97407e-06
-3.47983e-07
-1.87177e-06
-4.36599e-07
-1.75057e-06
-5.15938e-07
-1.61298e-06
-5.83872e-07
-1.46197e-06
-6.38378e-07
-1.30091e-06
-6.776e-07
-1.13352e-06
-6.9993e-07
-9.63836e-07
-7.04089e-07
-7.96059e-07
-6.89235e-07
-6.34493e-07
-6.55076e-07
-4.83405e-07
-6.02006e-07
-3.46891e-07
-5.31258e-07
-2.28738e-07
-4.45084e-07
-1.32315e-07
-3.46955e-07
-6.04975e-08
-2.41756e-07
-1.56881e-08
-1.36001e-07
-3.85914e-08
-1.98411e-08
6.21569e-08
-7.50258e-08
1.99538e-07
-1.61541e-07
3.38502e-07
-2.75393e-07
4.70541e-07
-4.12447e-07
5.89566e-07
-5.68397e-07
6.91174e-07
-7.38795e-07
7.72411e-07
-9.19115e-07
8.31555e-07
-1.10484e-06
8.67874e-07
-1.29153e-06
8.81423e-07
-1.47494e-06
8.72863e-07
-1.65103e-06
8.4332e-07
-1.81608e-06
7.94272e-07
-1.96668e-06
7.27456e-07
-2.0998e-06
6.44804e-07
-2.21282e-06
5.48394e-07
-2.30353e-06
4.40421e-07
-2.37014e-06
3.23173e-07
-2.41134e-06
1.99021e-07
-2.42625e-06
7.04168e-08
-2.41449e-06
-6.01171e-08
-2.37618e-06
-1.89988e-07
-2.31191e-06
-3.16546e-07
-2.2228e-06
-4.37093e-07
-2.11048e-06
-5.48915e-07
-1.97711e-06
-6.49312e-07
-1.82533e-06
-7.35647e-07
-1.6583e-06
-8.05411e-07
-1.4796e-06
-8.56295e-07
-1.29325e-06
-8.86284e-07
-1.10358e-06
-8.93762e-07
-9.15175e-07
-8.77636e-07
-7.32785e-07
-8.37466e-07
-5.61173e-07
-7.73618e-07
-4.0501e-07
-6.87421e-07
-2.6875e-07
-5.81344e-07
-1.56524e-07
-4.59181e-07
-7.20897e-08
-3.2619e-07
-1.88494e-08
-1.89242e-07
-5.74409e-08
-2.29074e-08
8.50644e-08
-8.62832e-08
2.62914e-07
-1.8505e-07
4.37269e-07
-3.14209e-07
5.99699e-07
-4.68733e-07
7.4409e-07
-6.43549e-07
8.65989e-07
-8.33558e-07
9.6242e-07
-1.03369e-06
1.03169e-06
-1.23897e-06
1.07316e-06
-1.4446e-06
1.08705e-06
-1.64599e-06
1.07426e-06
-1.83887e-06
1.0362e-06
-2.01928e-06
9.74681e-07
-2.18364e-06
8.91821e-07
-2.32879e-06
7.89948e-07
-2.45196e-06
6.71566e-07
-2.55085e-06
5.39306e-07
-2.62358e-06
3.95911e-07
-2.66878e-06
2.44219e-07
-2.68552e-06
8.7158e-08
-2.67338e-06
-7.22577e-08
-2.63244e-06
-2.30932e-07
-2.56329e-06
-3.85694e-07
-2.46707e-06
-5.33319e-07
-2.34543e-06
-6.7055e-07
-2.2006e-06
-7.94144e-07
-2.03533e-06
-9.0092e-07
-1.8529e-06
-9.87839e-07
-1.6571e-06
-1.05209e-06
-1.45219e-06
-1.0912e-06
-1.24281e-06
-1.10314e-06
-1.03394e-06
-1.08651e-06
-8.30759e-07
-1.04064e-06
-6.38585e-07
-9.65792e-07
-4.6271e-07
-8.63296e-07
-3.08302e-07
-7.35752e-07
-1.80305e-07
-5.87178e-07
-8.3376e-08
-4.23119e-07
-2.18844e-08
-2.50733e-07
-7.93252e-08
-2.58653e-08
1.1093e-07
-9.72228e-08
3.34271e-07
-2.08013e-07
5.4806e-07
-3.52272e-07
7.43958e-07
-5.24086e-07
9.15904e-07
-7.17596e-07
1.0595e-06
-9.2703e-07
1.17185e-06
-1.14675e-06
1.25141e-06
-1.37132e-06
1.29772e-06
-1.59554e-06
1.31127e-06
-1.81453e-06
1.29325e-06
-2.02377e-06
1.24543e-06
-2.21911e-06
1.17002e-06
-2.39682e-06
1.06953e-06
-2.55361e-06
9.46736e-07
-2.68663e-06
8.04585e-07
-2.79349e-06
6.46167e-07
-2.87227e-06
4.74691e-07
-2.92152e-06
2.93468e-07
-2.94027e-06
1.05912e-07
-2.92806e-06
-8.44685e-08
-2.88492e-06
-2.74066e-07
-2.81143e-06
-4.59185e-07
-2.70869e-06
-6.36057e-07
-2.57838e-06
-8.00867e-07
-2.42272e-06
-9.49799e-07
-2.24454e-06
-1.0791e-06
-2.04724e-06
-1.18515e-06
-1.83475e-06
-1.26458e-06
-1.61156e-06
-1.31438e-06
-1.38262e-06
-1.33208e-06
-1.15329e-06
-1.31584e-06
-9.29238e-07
-1.2647e-06
-7.1634e-07
-1.17869e-06
-5.20565e-07
-1.05907e-06
-3.47847e-07
-9.08469e-07
-2.03984e-07
-7.31041e-07
-9.45504e-08
-5.32553e-07
-2.48639e-08
-3.2042e-07
-1.04189e-07
-2.87668e-08
1.39696e-07
-1.07991e-07
4.13496e-07
-2.30677e-07
6.70745e-07
-3.89917e-07
9.03198e-07
-5.78912e-07
1.1049e-06
-7.91004e-07
1.27159e-06
-1.01973e-06
1.40058e-06
-1.25886e-06
1.49054e-06
-1.50248e-06
1.54134e-06
-1.745e-06
1.5538e-06
-1.98126e-06
1.52951e-06
-2.20648e-06
1.47066e-06
-2.41636e-06
1.3799e-06
-2.60704e-06
1.26021e-06
-2.77513e-06
1.11483e-06
-2.91774e-06
9.47189e-07
-3.03241e-06
7.60839e-07
-3.11718e-06
5.59463e-07
-3.17057e-06
3.46851e-07
-3.19155e-06
1.26895e-07
-3.17961e-06
-9.64031e-08
-3.13475e-06
-3.18929e-07
-3.05747e-06
-5.36462e-07
-2.94885e-06
-7.44686e-07
-2.8105e-06
-9.39214e-07
-2.64466e-06
-1.11564e-06
-2.45417e-06
-1.26959e-06
-2.24249e-06
-1.39683e-06
-2.0137e-06
-1.49337e-06
-1.77247e-06
-1.55561e-06
-1.52407e-06
-1.58049e-06
-1.27422e-06
-1.56569e-06
-1.02911e-06
-1.50981e-06
-7.95222e-07
-1.41258e-06
-5.79235e-07
-1.27506e-06
-3.87906e-07
-1.0998e-06
-2.27926e-07
-8.91021e-07
-1.05819e-07
-6.54659e-07
-2.78576e-08
-3.98381e-07
-1.32047e-07
-3.16582e-08
1.71355e-07
-1.18727e-07
5.00565e-07
-2.53285e-07
8.05303e-07
-4.27482e-07
1.0774e-06
-6.33623e-07
1.31104e-06
-8.64237e-07
1.5022e-06
-1.11214e-06
1.64848e-06
-1.37052e-06
1.74891e-06
-1.63295e-06
1.80377e-06
-1.89347e-06
1.81432e-06
-2.14662e-06
1.78265e-06
-2.38741e-06
1.71145e-06
-2.6114e-06
1.60389e-06
-2.81464e-06
1.46345e-06
-2.99368e-06
1.29388e-06
-3.14559e-06
1.09909e-06
-3.26789e-06
8.83141e-07
-3.3586e-06
6.50176e-07
-3.41621e-06
4.04455e-07
-3.43965e-06
1.50342e-07
-3.42838e-06
-1.07682e-07
-3.38229e-06
-3.65011e-07
-3.30185e-06
-6.16908e-07
-3.18802e-06
-8.58513e-07
-3.04237e-06
-1.08486e-06
-2.86707e-06
-1.29093e-06
-2.66494e-06
-1.47172e-06
-2.43946e-06
-1.62231e-06
-2.19481e-06
-1.73802e-06
-1.93583e-06
-1.81458e-06
-1.66806e-06
-1.84826e-06
-1.39764e-06
-1.83611e-06
-1.13125e-06
-1.7762e-06
-8.76022e-07
-1.66781e-06
-6.394e-07
-1.51168e-06
-4.29011e-07
-1.31019e-06
-2.52499e-07
-1.06753e-06
-1.17385e-07
-7.89773e-07
-3.09304e-08
-4.84836e-07
-1.62977e-07
-3.45797e-08
2.05934e-07
-1.29556e-07
5.95541e-07
-2.76061e-07
9.51807e-07
-4.65282e-07
1.26662e-06
-6.88604e-07
1.53436e-06
-9.37715e-07
1.75132e-06
-1.2047e-06
1.91547e-06
-1.48212e-06
2.02633e-06
-1.76307e-06
2.08472e-06
-2.0412e-06
2.09246e-06
-2.31077e-06
2.05222e-06
-2.56662e-06
1.96731e-06
-2.80418e-06
1.84145e-06
-3.01946e-06
1.67872e-06
-3.20898e-06
1.4834e-06
-3.36981e-06
1.25992e-06
-3.49949e-06
1.01282e-06
-3.59604e-06
7.46725e-07
-3.65793e-06
4.66345e-07
-3.68408e-06
1.76494e-07
-3.67387e-06
-1.17892e-07
-3.62714e-06
-4.1174e-07
-3.54423e-06
-6.99817e-07
-3.42601e-06
-9.76732e-07
-3.27393e-06
-1.23695e-06
-3.09004e-06
-1.47482e-06
-2.87709e-06
-1.68467e-06
-2.63854e-06
-1.86086e-06
-2.37861e-06
-1.99796e-06
-2.10229e-06
-2.0909e-06
-1.81536e-06
-2.13519e-06
-1.52435e-06
-2.12713e-06
-1.23645e-06
-2.06409e-06
-9.5949e-07
-1.94477e-06
-7.01714e-07
-1.76946e-06
-4.71681e-07
-1.54022e-06
-2.78061e-07
-1.26115e-06
-1.29442e-07
-9.38391e-07
-3.4143e-08
-5.80135e-07
-1.9712e-07
-3.75665e-08
2.43501e-07
-1.40591e-07
6.98566e-07
-2.99209e-07
1.11043e-06
-5.03603e-07
1.47101e-06
-7.44193e-07
1.77495e-06
-1.01179e-06
2.01892e-06
-1.29773e-06
2.2014e-06
-1.59393e-06
2.32253e-06
-1.89298e-06
2.38377e-06
-2.18819e-06
2.38766e-06
-2.47355e-06
2.33758e-06
-2.74376e-06
2.23751e-06
-2.99417e-06
2.09186e-06
-3.22077e-06
1.90532e-06
-3.42014e-06
1.68276e-06
-3.58936e-06
1.42914e-06
-3.72603e-06
1.1495e-06
-3.82822e-06
8.48911e-07
-3.8944e-06
5.32526e-07
-3.92348e-06
2.05573e-07
-3.91478e-06
-1.26596e-07
-3.86804e-06
-4.58473e-07
-3.78349e-06
-7.84367e-07
-3.66184e-06
-1.09838e-06
-3.50437e-06
-1.39442e-06
-3.31299e-06
-1.66621e-06
-3.09028e-06
-1.90737e-06
-2.83964e-06
-2.1115e-06
-2.56524e-06
-2.27235e-06
-2.27219e-06
-2.38395e-06
-1.96646e-06
-2.44091e-06
-1.65495e-06
-2.43864e-06
-1.3454e-06
-2.37364e-06
-1.0463e-06
-2.24387e-06
-7.66782e-07
-2.04897e-06
-5.16406e-07
-1.7906e-06
-3.0495e-07
-1.47261e-06
-1.42172e-07
-1.10117e-06
-3.75515e-08
-6.84756e-07
-2.34672e-07
-4.06508e-08
2.84152e-07
-1.51935e-07
8.0985e-07
-3.22917e-07
1.28141e-06
-5.42701e-07
1.69079e-06
-8.00685e-07
2.03294e-06
-1.08676e-06
2.30499e-06
-1.39145e-06
2.50609e-06
-1.70604e-06
2.63713e-06
-2.02263e-06
2.70037e-06
-2.33418e-06
2.69921e-06
-2.63445e-06
2.63786e-06
-2.91805e-06
2.52111e-06
-3.18031e-06
2.35412e-06
-3.41727e-06
2.14228e-06
-3.62558e-06
1.89107e-06
-3.80244e-06
1.606e-06
-3.94554e-06
1.2926e-06
-4.05302e-06
9.56392e-07
-4.12341e-06
6.0291e-07
-4.1556e-06
2.37762e-07
-4.14886e-06
-1.33333e-07
-4.10285e-06
-5.04488e-07
-4.01762e-06
-8.69598e-07
-3.89369e-06
-1.2223e-06
-3.73214e-06
-1.55597e-06
-3.53462e-06
-1.86372e-06
-3.30354e-06
-2.13845e-06
-3.04208e-06
-2.37296e-06
-2.75436e-06
-2.56007e-06
-2.44548e-06
-2.69284e-06
-2.12157e-06
-2.76482e-06
-1.78986e-06
-2.77035e-06
-1.4586e-06
-2.7049e-06
-1.13702e-06
-2.56545e-06
-8.35148e-07
-2.35085e-06
-5.63637e-07
-2.06211e-06
-3.33487e-07
-1.70276e-06
-1.55751e-07
-1.27891e-06
-4.12095e-08
-7.99297e-07
-2.75881e-07
-4.38629e-08
3.28014e-07
-1.63687e-07
9.29674e-07
-3.47362e-07
1.46508e-06
-5.82814e-07
1.92625e-06
-8.58333e-07
2.30846e-06
-1.16282e-06
2.60947e-06
-1.48597e-06
2.82924e-06
-1.81839e-06
2.96955e-06
-2.15172e-06
3.03369e-06
-2.47857e-06
3.02606e-06
-2.79256e-06
2.95185e-06
-3.08824e-06
2.81679e-06
-3.361e-06
2.62689e-06
-3.607e-06
2.38827e-06
-3.82303e-06
2.1071e-06
-4.00647e-06
1.78945e-06
-4.15518e-06
1.44131e-06
-4.26742e-06
1.06862e-06
-4.34178e-06
6.77273e-07
-4.3772e-06
2.73179e-07
-4.37289e-06
-1.37638e-07
-4.3284e-06
-5.48979e-07
-4.2436e-06
-9.54393e-07
-4.11879e-06
-1.34711e-06
-3.95474e-06
-1.72002e-06
-3.75282e-06
-2.06564e-06
-3.51512e-06
-2.37616e-06
-3.24457e-06
-2.64352e-06
-2.94507e-06
-2.85956e-06
-2.62166e-06
-3.01625e-06
-2.28054e-06
-3.10593e-06
-1.92921e-06
-3.12168e-06
-1.57641e-06
-3.0577e-06
-1.2321e-06
-2.90977e-06
-9.07286e-07
-2.67566e-06
-6.13791e-07
-2.3556e-06
-3.63973e-07
-1.95258e-06
-1.70344e-07
-1.47254e-06
-4.51693e-08
-9.24471e-07
-3.2105e-07
-4.72347e-08
3.75249e-07
-1.75949e-07
1.05839e-06
-3.7272e-07
1.66185e-06
-6.24168e-07
2.17769e-06
-9.17364e-07
2.60165e-06
-1.24013e-06
2.93224e-06
-1.58128e-06
3.17039e-06
-1.93075e-06
3.31903e-06
-2.27969e-06
3.38263e-06
-2.62045e-06
3.36682e-06
-2.94655e-06
3.27795e-06
-3.25255e-06
3.1228e-06
-3.53401e-06
2.90834e-06
-3.78727e-06
2.64154e-06
-4.00939e-06
2.32922e-06
-4.198e-06
1.97805e-06
-4.35117e-06
1.59449e-06
-4.46736e-06
1.18481e-06
-4.5453e-06
7.5521e-07
-4.58396e-06
3.11839e-07
-4.58254e-06
-1.3906e-07
-4.54045e-06
-5.91065e-07
-4.45738e-06
-1.03747e-06
-4.33332e-06
-1.47117e-06
-4.16871e-06
-1.88463e-06
-3.96453e-06
-2.26983e-06
-3.72244e-06
-2.61824e-06
-3.445e-06
-2.92095e-06
-3.13581e-06
-3.16876e-06
-2.79968e-06
-3.35239e-06
-2.44279e-06
-3.46282e-06
-2.07282e-06
-3.49165e-06
-1.69895e-06
-3.43157e-06
-1.33186e-06
-3.27685e-06
-9.83591e-07
-3.02394e-06
-6.67248e-07
-2.67195e-06
-3.967e-07
-2.22312e-06
-1.86119e-07
-1.68312e-06
-4.94835e-08
-1.06111e-06
-3.70534e-07
-5.08016e-08
4.26051e-07
-1.88833e-07
1.19642e-06
-3.99186e-07
1.87221e-06
-6.67004e-07
2.44551e-06
-9.77993e-07
2.91264e-06
-1.3188e-06
3.27305e-06
-1.67729e-06
3.52888e-06
-2.0427e-06
3.68444e-06
-2.40573e-06
3.74567e-06
-2.75854e-06
3.71962e-06
-3.09459e-06
3.614e-06
-3.40862e-06
3.43683e-06
-3.69641e-06
3.19613e-06
-3.95464e-06
2.89976e-06
-4.18071e-06
2.55529e-06
-4.37259e-06
2.16994e-06
-4.5287e-06
1.75059e-06
-4.64773e-06
1.30384e-06
-4.7286e-06
8.36082e-07
-4.77038e-06
3.53623e-07
-4.77226e-06
-1.37183e-07
-4.73353e-06
-6.29795e-07
-4.65365e-06
-1.11735e-06
-4.53228e-06
-1.59254e-06
-4.36943e-06
-2.04748e-06
-4.1656e-06
-2.47366e-06
-3.92192e-06
-2.86191e-06
-3.64044e-06
-3.20244e-06
-3.32427e-06
-3.48493e-06
-2.97787e-06
-3.69879e-06
-2.60724e-06
-3.83345e-06
-2.22013e-06
-3.87877e-06
-1.82607e-06
-3.82562e-06
-1.43646e-06
-3.66646e-06
-1.06438e-06
-3.39602e-06
-7.24357e-07
-3.01197e-06
-4.31954e-07
-2.51553e-06
-2.03244e-07
-1.91183e-06
-5.42073e-08
-1.21014e-06
-4.24741e-07
-5.46073e-08
4.80658e-07
-2.02478e-07
1.34429e-06
-4.2699e-07
2.09672e-06
-7.11595e-07
2.73012e-06
-1.04045e-06
3.2415e-06
-1.39889e-06
3.63149e-06
-1.77377e-06
3.90375e-06
-2.15361e-06
4.06428e-06
-2.52873e-06
4.12078e-06
-2.89111e-06
4.08201e-06
-3.23436e-06
3.95725e-06
-3.55345e-06
3.75591e-06
-3.84454e-06
3.48722e-06
-4.10478e-06
3.16e-06
-4.33205e-06
2.78256e-06
-4.52479e-06
2.36268e-06
-4.68183e-06
1.90762e-06
-4.8022e-06
1.42421e-06
-4.88508e-06
9.18966e-07
-4.92969e-06
3.98226e-07
-4.93521e-06
-1.31659e-07
-4.90084e-06
-6.64166e-07
-4.82578e-06
-1.19241e-06
-4.70932e-06
-1.70899e-06
-4.55099e-06
-2.20581e-06
-4.35067e-06
-2.67398e-06
-4.10885e-06
-3.10373e-06
-3.82688e-06
-3.48441e-06
-3.50722e-06
-3.80459e-06
-3.15379e-06
-4.05222e-06
-2.77222e-06
-4.21501e-06
-2.37014e-06
-4.28085e-06
-1.95735e-06
-4.23841e-06
-1.54587e-06
-4.07794e-06
-1.14989e-06
-3.79201e-06
-7.85445e-07
-3.37641e-06
-4.70026e-07
-2.83095e-06
-2.21903e-07
-2.15995e-06
-5.94017e-08
-1.37264e-06
-4.84143e-07
-5.8708e-08
5.39366e-07
-2.17055e-07
1.50264e-06
-4.5642e-07
2.33608e-06
-7.58276e-07
3.03197e-06
-1.105e-06
3.58822e-06
-1.48047e-06
4.00695e-06
-1.87041e-06
4.29369e-06
-2.26267e-06
4.45654e-06
-2.64721e-06
4.50532e-06
-3.016e-06
4.4508e-06
-3.36288e-06
4.30413e-06
-3.68326e-06
4.07629e-06
-3.97384e-06
3.77781e-06
-4.23239e-06
3.41855e-06
-4.45742e-06
3.00759e-06
-4.64796e-06
2.55323e-06
-4.80337e-06
2.06303e-06
-4.92314e-06
1.54399e-06
-5.00677e-06
1.0026e-06
-5.05366e-06
4.45122e-07
-5.06308e-06
-1.22244e-07
-5.0341e-06
-6.93146e-07
-4.96567e-06
-1.26084e-06
-4.85667e-06
-1.81799e-06
-4.70605e-06
-2.35643e-06
-4.513e-06
-2.86703e-06
-4.27721e-06
-3.33952e-06
-3.99914e-06
-3.76248e-06
-3.68041e-06
-4.12332e-06
-3.32413e-06
-4.4085e-06
-2.93534e-06
-4.6038e-06
-2.52135e-06
-4.69484e-06
-2.092e-06
-4.66776e-06
-1.65988e-06
-4.51006e-06
-1.24025e-06
-4.21163e-06
-8.50819e-07
-3.76584e-06
-5.11225e-07
-3.17054e-06
-2.42296e-07
-2.42888e-06
-6.51365e-08
-1.5498e-06
-5.49279e-07
-6.31792e-08
6.02545e-07
-2.32798e-07
1.67226e-06
-4.87855e-07
2.59114e-06
-8.0748e-07
3.3516e-06
-1.17198e-06
3.95272e-06
-1.56356e-06
4.39853e-06
-1.96678e-06
4.69692e-06
-2.36879e-06
4.85855e-06
-2.75931e-06
4.89584e-06
-3.13045e-06
4.82195e-06
-3.47648e-06
4.65016e-06
-3.79343e-06
4.39323e-06
-4.07877e-06
4.06315e-06
-4.33105e-06
3.67083e-06
-4.54958e-06
3.22613e-06
-4.73416e-06
2.7378e-06
-4.88479e-06
2.21366e-06
-5.0015e-06
1.6607e-06
-5.08422e-06
1.08531e-06
-5.1326e-06
4.93506e-07
-5.14601e-06
-1.08839e-07
-5.12344e-06
-7.15711e-07
-5.06359e-06
-1.32069e-06
-4.96489e-06
-1.91669e-06
-4.82566e-06
-2.49567e-06
-4.64427e-06
-3.04842e-06
-4.41946e-06
-3.56433e-06
-4.15064e-06
-4.0313e-06
-3.83829e-06
-4.43567e-06
-3.48448e-06
-4.7623e-06
-3.09334e-06
-4.99494e-06
-2.67155e-06
-5.11663e-06
-2.22879e-06
-5.11053e-06
-1.778e-06
-4.96085e-06
-1.33551e-06
-4.65413e-06
-9.20781e-07
-4.18057e-06
-5.55894e-07
-3.53543e-06
-2.64661e-07
-2.72011e-06
-7.14957e-08
-1.74297e-06
-6.20775e-07
-6.81243e-08
6.7067e-07
-2.50019e-07
1.85415e-06
-5.21798e-07
2.86292e-06
-8.59773e-07
3.68957e-06
-1.2418e-06
4.33475e-06
-1.64821e-06
4.80493e-06
-2.06229e-06
5.111e-06
-2.47056e-06
5.26682e-06
-2.86264e-06
5.28792e-06
-3.23101e-06
5.19032e-06
-3.57059e-06
4.98974e-06
-3.8783e-06
4.70094e-06
-4.1526e-06
4.33745e-06
-4.39306e-06
3.91129e-06
-4.59998e-06
3.43305e-06
-4.77405e-06
2.91187e-06
-4.91606e-06
2.35567e-06
-5.02671e-06
1.77135e-06
-5.10642e-06
1.16502e-06
-5.15517e-06
5.4226e-07
-5.17248e-06
-9.15334e-08
-5.1573e-06
-7.30885e-07
-5.10809e-06
-1.36991e-06
-5.0228e-06
-2.00197e-06
-4.89908e-06
-2.61939e-06
-4.7344e-06
-3.2131e-06
-4.52638e-06
-3.77235e-06
-4.27317e-06
-4.28452e-06
-3.97387e-06
-4.73496e-06
-3.62917e-06
-5.10701e-06
-3.24191e-06
-5.3822e-06
-2.81778e-06
-5.54076e-06
-2.36593e-06
-5.56237e-06
-1.89945e-06
-5.42733e-06
-1.43558e-06
-5.118e-06
-9.95632e-07
-4.62051e-06
-6.04432e-07
-3.92663e-06
-2.89284e-07
-3.03526e-06
-7.85845e-08
-1.95367e-06
-6.9936e-07
-7.36866e-08
7.44356e-07
-2.69144e-07
2.04961e-06
-5.58927e-07
3.1527e-06
-9.15898e-07
4.04654e-06
-1.31501e-06
4.73386e-06
-1.73442e-06
5.22434e-06
-2.15612e-06
5.53271e-06
-2.56611e-06
5.67681e-06
-2.95413e-06
5.67594e-06
-3.31331e-06
5.5495e-06
-3.63955e-06
5.31597e-06
-3.93095e-06
4.99235e-06
-4.18725e-06
4.59375e-06
-4.40928e-06
4.13332e-06
-4.59851e-06
3.62228e-06
-4.7567e-06
3.07005e-06
-4.88556e-06
2.48454e-06
-4.98655e-06
1.87235e-06
-5.06068e-06
1.23914e-06
-5.10832e-06
5.89909e-07
-5.12921e-06
-7.06454e-08
-5.12231e-06
-7.37789e-07
-5.08583e-06
-1.40638e-06
-5.0173e-06
-2.07051e-06
-4.91363e-06
-2.72307e-06
-4.77132e-06
-3.3554e-06
-4.58678e-06
-3.95689e-06
-4.35665e-06
-4.51465e-06
-4.0784e-06
-5.01321e-06
-3.75093e-06
-5.43447e-06
-3.3754e-06
-5.75773e-06
-2.95603e-06
-5.96013e-06
-2.50096e-06
-6.01744e-06
-2.02303e-06
-5.90526e-06
-1.54021e-06
-5.60082e-06
-1.07568e-06
-5.08504e-06
-6.57318e-07
-4.34499e-06
-3.16532e-07
-3.37604e-06
-8.65392e-08
-2.18366e-06
-7.85899e-07
-8.00662e-08
8.24422e-07
-2.90761e-07
2.2603e-06
-6.00151e-07
3.46209e-06
-9.76822e-07
4.42322e-06
-1.39223e-06
5.14927e-06
-1.82211e-06
5.65422e-06
-2.24713e-06
5.95773e-06
-2.65294e-06
6.08262e-06
-3.02979e-06
6.05278e-06
-3.37181e-06
5.89152e-06
-3.6763e-06
5.62046e-06
-3.94292e-06
5.25897e-06
-4.17298e-06
4.82381e-06
-4.36882e-06
4.32917e-06
-4.53331e-06
3.78677e-06
-4.66942e-06
3.20616e-06
-4.7799e-06
2.59502e-06
-4.86707e-06
1.95952e-06
-4.93257e-06
1.30464e-06
-4.97727e-06
6.34611e-07
-5.00116e-06
-4.67634e-08
-5.00324e-06
-7.35701e-07
-4.98159e-06
-1.42804e-06
-4.93328e-06
-2.11882e-06
-4.85453e-06
-2.80181e-06
-4.74085e-06
-3.46908e-06
-4.58728e-06
-4.11046e-06
-4.38883e-06
-4.71309e-06
-4.14103e-06
-5.26102e-06
-3.84062e-06
-5.73488e-06
-3.48655e-06
-6.1118e-06
-3.08098e-06
-6.3657e-06
-2.63047e-06
-6.46795e-06
-2.14703e-06
-6.38871e-06
-1.64897e-06
-6.09888e-06
-1.16127e-06
-5.57275e-06
-7.15154e-07
-4.7911e-06
-3.46882e-07
-3.74432e-06
-9.55422e-08
-2.435e-06
-8.81441e-07
-8.75445e-08
9.11967e-07
-3.15673e-07
2.48843e-06
-6.46685e-07
3.7931e-06
-1.04378e-06
4.82031e-06
-1.4742e-06
5.57969e-06
-1.91098e-06
6.091e-06
-2.33355e-06
6.3803e-06
-2.72759e-06
6.47666e-06
-3.08429e-06
6.40948e-06
-3.39936e-06
6.20658e-06
-3.67197e-06
5.89308e-06
-3.90377e-06
5.49077e-06
-4.09801e-06
5.01804e-06
-4.25879e-06
4.48994e-06
-4.39055e-06
3.91853e-06
-4.49761e-06
3.31322e-06
-4.58386e-06
2.68127e-06
-4.65251e-06
2.02816e-06
-4.70592e-06
1.35805e-06
-4.74547e-06
6.74162e-07
-4.77146e-06
-2.07691e-08
-4.78305e-06
-7.24116e-07
-4.77817e-06
-1.43292e-06
-4.75357e-06
-2.14342e-06
-4.70482e-06
-2.85057e-06
-4.62642e-06
-3.54748e-06
-4.51206e-06
-4.22482e-06
-4.35497e-06
-4.87019e-06
-4.14846e-06
-5.46753e-06
-3.88675e-06
-5.99659e-06
-3.566e-06
-6.43255e-06
-3.18564e-06
-6.74607e-06
-2.7498e-06
-6.90379e-06
-2.26893e-06
-6.86958e-06
-1.76107e-06
-6.60674e-06
-1.25271e-06
-6.0811e-06
-7.78707e-07
-5.26511e-06
-3.80973e-07
-4.14205e-06
-1.05844e-07
-2.71013e-06
-9.87286e-07
-9.65212e-08
1.00849e-06
-3.44993e-07
2.7369e-06
-7.00133e-07
4.14824e-06
-1.11828e-06
5.23845e-06
-1.56163e-06
6.02304e-06
-2.00027e-06
6.52965e-06
-2.41269e-06
6.79271e-06
-2.78513e-06
6.84911e-06
-3.11045e-06
6.7348e-06
-3.38662e-06
6.48275e-06
-3.61531e-06
6.12177e-06
-3.80064e-06
5.6761e-06
-3.94812e-06
5.16553e-06
-4.0639e-06
4.60573e-06
-4.15413e-06
4.00876e-06
-4.22456e-06
3.38365e-06
-4.28022e-06
2.73694e-06
-4.32526e-06
2.07321e-06
-4.36276e-06
1.39555e-06
-4.39465e-06
7.06043e-07
-4.42157e-06
6.15738e-09
-4.44288e-06
-7.02808e-07
-4.45651e-06
-1.41929e-06
-4.45895e-06
-2.14097e-06
-4.44525e-06
-2.86427e-06
-4.40902e-06
-3.58371e-06
-4.34262e-06
-4.29121e-06
-4.23745e-06
-4.97536e-06
-4.08446e-06
-5.62052e-06
-3.87496e-06
-6.20609e-06
-3.60176e-06
-6.70575e-06
-3.26071e-06
-7.08712e-06
-2.85258e-06
-7.31192e-06
-2.38514e-06
-7.33702e-06
-1.87523e-06
-7.11664e-06
-1.35032e-06
-6.60601e-06
-8.48967e-07
-5.76646e-06
-4.19683e-07
-4.57133e-06
-1.178e-07
-3.01201e-06
-1.10509e-06
-1.07571e-07
1.11606e-06
-3.80252e-07
3.00958e-06
-7.62594e-07
4.53059e-06
-1.20212e-06
5.67798e-06
-1.655e-06
6.47592e-06
-2.08834e-06
6.96299e-06
-2.48022e-06
7.1846e-06
-2.81841e-06
7.18729e-06
-3.09838e-06
7.01477e-06
-3.32125e-06
6.70562e-06
-3.49191e-06
6.29243e-06
-3.61748e-06
5.80167e-06
-3.7061e-06
5.25414e-06
-3.7661e-06
4.66572e-06
-3.80542e-06
4.04808e-06
-3.83125e-06
3.40948e-06
-3.84975e-06
2.75543e-06
-3.86592e-06
2.08938e-06
-3.88352e-06
1.41315e-06
-3.905e-06
7.27521e-07
-3.9314e-06
3.25628e-08
-3.96233e-06
-6.71884e-07
-3.99581e-06
-1.3858e-06
-4.02827e-06
-2.10852e-06
-4.05438e-06
-2.83816e-06
-4.06707e-06
-3.57102e-06
-4.05755e-06
-4.30074e-06
-4.01547e-06
-5.01743e-06
-3.92937e-06
-5.70662e-06
-3.78739e-06
-6.34808e-06
-3.57843e-06
-6.9147e-06
-3.2939e-06
-7.37164e-06
-2.92999e-06
-7.67583e-06
-2.4904e-06
-7.77661e-06
-1.98937e-06
-7.61768e-06
-1.45429e-06
-7.14109e-06
-9.27207e-07
-6.29354e-06
-4.64231e-07
-5.03431e-06
-1.31923e-07
-3.34432e-06
-1.23701e-06
-1.21535e-07
1.23759e-06
-4.2358e-07
3.31163e-06
-8.36767e-07
4.94377e-06
-1.29722e-06
6.13843e-06
-1.75412e-06
6.93281e-06
-2.17187e-06
7.38074e-06
-2.52925e-06
7.54198e-06
-2.8169e-06
7.47495e-06
-3.03427e-06
7.23214e-06
-3.18674e-06
6.8581e-06
-3.28322e-06
6.38891e-06
-3.33431e-06
5.85275e-06
-3.35104e-06
5.27087e-06
-3.34402e-06
4.65871e-06
-3.32293e-06
4.027e-06
-3.29627e-06
3.38281e-06
-3.27116e-06
2.73032e-06
-3.25333e-06
2.07155e-06
-3.24712e-06
1.40694e-06
-3.25541e-06
7.35813e-07
-3.27964e-06
5.6787e-08
-3.31969e-06
-6.31825e-07
-3.37387e-06
-1.33163e-06
-3.43866e-06
-2.04372e-06
-3.5087e-06
-2.76813e-06
-3.57649e-06
-3.50322e-06
-3.63242e-06
-4.24481e-06
-3.66468e-06
-4.98518e-06
-3.65952e-06
-5.71178e-06
-3.60184e-06
-6.40576e-06
-3.47623e-06
-7.04031e-06
-3.2688e-06
-7.57907e-06
-2.96977e-06
-7.97486e-06
-2.57697e-06
-8.16942e-06
-2.09999e-06
-8.09465e-06
-1.56443e-06
-7.67665e-06
-1.01503e-06
-6.84293e-06
-5.16336e-07
-5.53301e-06
-1.48977e-07
-3.71168e-06
-1.38599e-06
-1.39673e-07
1.37727e-06
-4.77947e-07
3.6499e-06
-9.26021e-07
5.39185e-06
-1.40534e-06
6.61775e-06
-1.85728e-06
7.38476e-06
-2.24461e-06
7.76806e-06
-2.54867e-06
7.84604e-06
-2.765e-06
7.69128e-06
-2.89879e-06
7.36593e-06
-2.96096e-06
6.92027e-06
-2.96524e-06
6.39319e-06
-2.92614e-06
5.81365e-06
-2.85766e-06
5.20239e-06
-2.77257e-06
4.57362e-06
-2.68208e-06
3.93651e-06
-2.59568e-06
3.29642e-06
-2.52121e-06
2.65585e-06
-2.46488e-06
2.01521e-06
-2.43136e-06
1.37342e-06
-2.42387e-06
7.28323e-07
-2.44416e-06
7.70784e-08
-2.49248e-06
-5.83501e-07
-2.56748e-06
-1.25663e-06
-2.66602e-06
-1.94518e-06
-2.78296e-06
-2.65119e-06
-2.91087e-06
-3.37531e-06
-3.03976e-06
-4.11592e-06
-3.15688e-06
-4.86806e-06
-3.24663e-06
-5.62203e-06
-3.29089e-06
-6.3615e-06
-3.2698e-06
-7.0614e-06
-3.16344e-06
-7.68542e-06
-2.95466e-06
-8.18365e-06
-2.63319e-06
-8.49089e-06
-2.20122e-06
-8.52662e-06
-1.67974e-06
-8.19813e-06
-1.11438e-06
-7.4083e-06
-5.78433e-07
-6.06895e-06
-1.70127e-07
-4.11999e-06
-1.55611e-06
-1.63927e-07
1.54119e-06
-5.47502e-07
4.03348e-06
-1.03434e-06
5.87868e-06
-1.52721e-06
7.11062e-06
-1.9597e-06
7.81725e-06
-2.2952e-06