/*--------------------------------*- C++ -*----------------------------------*\
| =========                 |                                                 |
| \\      /  F ield         | OpenFOAM: The Open Source CFD Toolbox           |
|  \\    /   O peration     | Version:  2206                                  |
|   \\  /    A nd           | Website:  www.openfoam.com                      |
|    \\/     M anipulation  |                                                 |
\*---------------------------------------------------------------------------*/
FoamFile
{
    version     2.0;
    format      ascii;
    arch        "LSB;label=32;scalar=64";
    class       volScalarField;
    location    "0.3";
    object      T;
}
// * * * * * * * * * * * * * * * * * * * * * * * * * * * * * * * * * * * * * //

dimensions      [0 0 0 1 0 0 0];

internalField   nonuniform List<scalar> 
1600
(
300
300.001
300.002
300.002
300.003
300.005
300.006
300.008
300.011
300.014
300.018
300.023
300.028
300.035
300.042
300.049
300.058
300.066
300.075
300.084
300.093
300.101
300.108
300.114
300.119
300.122
300.124
300.124
300.122
300.118
300.112
300.104
300.095
300.085
300.073
300.061
300.048
300.034
300.021
300.007
300.001
300.003
300.005
300.007
300.01
300.014
300.02
300.026
300.034
300.044
300.057
300.071
300.088
300.108
300.129
300.153
300.179
300.206
300.234
300.262
300.289
300.314
300.336
300.355
300.37
300.38
300.385
300.384
300.378
300.365
300.347
300.323
300.295
300.263
300.227
300.189
300.148
300.107
300.064
300.021
300.002
300.005
300.008
300.013
300.018
300.025
300.034
300.046
300.06
300.078
300.1
300.126
300.156
300.191
300.23
300.273
300.319
300.367
300.417
300.466
300.514
300.559
300.6
300.634
300.66
300.678
300.687
300.685
300.673
300.65
300.617
300.575
300.524
300.467
300.403
300.335
300.263
300.189
300.114
300.038
300.002
300.007
300.012
300.019
300.027
300.038
300.052
300.069
300.091
300.119
300.152
300.192
300.238
300.292
300.352
300.418
300.489
300.564
300.64
300.717
300.791
300.861
300.923
300.976
301.017
301.045
301.057
301.054
301.035
301
300.949
300.883
300.805
300.716
300.617
300.512
300.402
300.289
300.174
300.058
300.003
300.01
300.017
300.027
300.038
300.053
300.073
300.098
300.129
300.168
300.216
300.273
300.34
300.417
300.504
300.6
300.703
300.811
300.922
301.033
301.141
301.242
301.332
301.409
301.469
301.509
301.528
301.523
301.495
301.443
301.369
301.273
301.16
301.03
300.888
300.736
300.577
300.414
300.249
300.083
300.004
300.013
300.023
300.036
300.052
300.072
300.099
300.133
300.177
300.23
300.296
300.375
300.469
300.576
300.696
300.83
300.974
301.125
301.281
301.436
301.587
301.729
301.856
301.964
302.048
302.104
302.131
302.124
302.085
302.012
301.907
301.773
301.614
301.432
301.233
301.02
300.8
300.573
300.345
300.115
300.006
300.017
300.031
300.047
300.068
300.096
300.131
300.177
300.235
300.308
300.397
300.504
300.63
300.775
300.94
301.121
301.317
301.524
301.736
301.949
302.156
302.35
302.524
302.672
302.788
302.866
302.902
302.894
302.84
302.74
302.597
302.413
302.194
301.946
301.673
301.384
301.083
300.776
300.466
300.155
300.007
300.022
300.04
300.061
300.089
300.124
300.171
300.231
300.308
300.404
300.522
300.664
300.832
301.025
301.245
301.487
301.749
302.026
302.311
302.596
302.874
303.134
303.369
303.568
303.724
303.83
303.879
303.869
303.797
303.663
303.471
303.225
302.931
302.597
302.231
301.844
301.442
301.032
300.619
300.206
300.009
300.028
300.05
300.078
300.113
300.159
300.22
300.298
300.397
300.522
300.676
300.862
301.082
301.336
301.623
301.942
302.286
302.65
303.025
303.401
303.767
304.111
304.421
304.685
304.892
305.032
305.098
305.086
304.992
304.816
304.563
304.239
303.851
303.411
302.929
302.418
301.889
301.351
300.81
300.27
300.011
300.036
300.064
300.098
300.143
300.202
300.279
300.378
300.506
300.667
300.865
301.104
301.388
301.716
302.088
302.499
302.945
303.416
303.902
304.389
304.863
305.308
305.71
306.052
306.321
306.504
306.592
306.577
306.457
306.231
305.904
305.484
304.982
304.411
303.787
303.125
302.44
301.743
301.044
300.348
300.014
300.044
300.079
300.123
300.179
300.252
300.349
300.476
300.637
300.841
301.093
301.398
301.758
302.176
302.649
303.173
303.741
304.34
304.958
305.577
306.18
306.747
307.258
307.694
308.038
308.272
308.386
308.369
308.218
307.933
307.519
306.986
306.347
305.62
304.825
303.98
303.106
302.218
301.328
300.442
300.018
300.055
300.098
300.151
300.221
300.313
300.433
300.591
300.794
301.049
301.365
301.747
302.2
302.724
303.317
303.974
304.685
305.435
306.208
306.982
307.735
308.443
309.082
309.627
310.056
310.351
310.495
310.478
310.292
309.94
309.425
308.76
307.963
307.053
306.055
304.995
303.897
302.782
301.665
300.554
300.021
300.067
300.119
300.185
300.27
300.383
300.532
300.727
300.978
301.294
301.685
302.159
302.719
303.367
304.1
304.911
305.786
306.709
307.659
308.609
309.533
310.401
311.183
311.852
312.379
312.742
312.922
312.905
312.683
312.255
311.628
310.815
309.836
308.717
307.487
306.178
304.821
303.441
302.059
300.684
300.026
300.081
300.144
300.224
300.328
300.465
300.647
300.886
301.192
301.579
302.057
302.636
303.319
304.109
305.001
305.985
307.046
308.163
309.309
310.455
311.567
312.611
313.551
314.355
314.991
315.43
315.651
315.636
315.376
314.868
314.119
313.144
311.965
310.613
309.122
307.532
305.879
304.197
302.511
300.834
300.031
300.097
300.173
300.269
300.394
300.56
300.78
301.068
301.438
301.906
302.483
303.18
304.002
304.951
306.019
307.195
308.459
309.786
311.146
312.502
313.815
315.047
316.157
317.107
317.859
318.382
318.65
318.641
318.344
317.754
316.878
315.73
314.337
312.731
310.955
309.053
307.071
305.05
303.022
301.004
300.037
300.115
300.206
300.32
300.469
300.667
300.93
301.274
301.717
302.275
302.963
303.792
304.767
305.888
307.147
308.529
310.01
311.56
313.143
314.718
316.242
317.67
318.955
320.056
320.932
321.546
321.866
321.87
321.541
320.873
319.869
318.545
316.927
315.054
312.971
310.732
308.39
305.996
303.589
301.192
300.044
300.136
300.243
300.377
300.554
300.788
301.099
301.506
302.029
302.687
303.496
304.467
305.607
306.912
308.373
309.969
311.674
313.452
315.263
317.06
318.795
320.419
321.883
323.139
324.142
324.853
325.236
325.262
324.911
324.172
323.048
321.55
319.706
317.556
315.153
312.555
309.827
307.029
304.209
301.399
300.051
300.158
300.284
300.441
300.648
300.922
301.286
301.762
302.372
303.138
304.077
305.199
306.511
308.007
309.674
311.487
313.416
315.419
317.453
319.466
321.407
323.223
324.862
326.274
327.409
328.225
328.68
328.742
328.385
327.592
326.361
324.7
322.636
320.21
317.478
314.508
311.372
308.143
304.88
301.622
300.059
300.184
300.329
300.512
300.751
301.07
301.491
302.041
302.745
303.625
304.698
305.977
307.464
309.151
311.021
313.046
315.189
317.407
319.65
321.866
324.001
325.999
327.807
329.372
330.643
331.573
332.116
332.233
331.892
331.069
329.754
327.95
325.68
322.985
319.925
316.573
313.014
309.33
305.596
301.861
300.068
300.211
300.378
300.588
300.864
301.229
301.712
302.341
303.143
304.14
305.351
306.786
308.445
310.316
312.378
314.6
316.94
319.351
321.783
324.181
326.491
328.657
330.624
332.34
333.752
334.808
335.458
335.657
335.362
334.541
333.174
331.256
328.804
325.856
322.473
318.737
314.742
310.585
306.355
302.114
300.078
300.241
300.432
300.671
300.985
301.4
301.948
302.658
303.559
304.675
306.021
307.607
309.428
311.469
313.704
316.098
318.608
321.185
323.776
326.329
328.79
331.105
333.221
335.086
336.645
337.843
338.626
338.938
338.728
337.95
336.573
334.58
331.978
328.801
325.109
320.991
316.551
311.904
307.154
302.381
300.088
300.273
300.489
300.76
301.113
301.581
302.195
302.988
303.988
305.218
306.693
308.416
310.382
312.57
314.951
317.486
320.131
322.836
325.553
328.228
330.814
333.259
335.513
337.525
339.24
340.601
341.546
342.01
341.931
341.247
339.911
337.891
335.18
331.805
327.824
323.33
318.44
313.286
307.994
302.662
300.099
300.307
300.549
300.853
301.248
301.769
302.45
303.324
304.418
305.755
307.345
309.189
311.275
313.579
316.07
318.706
321.445
324.239
327.041
329.806
332.488
335.042
337.424
339.583
341.467
343.013
344.154
344.816
344.92
344.388
343.153
341.164
338.396
334.862
330.617
325.757
320.414
314.737
308.878
302.957
300.111
300.343
300.613
300.95
301.388
301.963
302.709
303.659
304.841
306.271
307.958
309.897
312.071
314.455
317.014
319.708
322.496
325.334
328.183
331.001
333.752
336.398
338.897
341.205
343.269
345.025
346.399
347.306
347.651
347.337
346.272
344.38
341.615
337.972
333.495
328.284
322.483
316.266
309.812
303.27
300.123
300.381
300.679
301.051
301.531
302.158
302.966
303.986
305.243
306.75
308.509
310.512
312.738
315.159
317.741
320.447
323.238
326.078
328.934
331.774
334.568
337.287
339.895
342.353
344.609
346.599
348.242
349.442
350.088
350.061
349.241
347.524
344.832
341.138
336.47
330.926
324.665
317.886
310.804
303.602
300.136
300.42
300.747
301.154
301.676
302.352
303.216
304.296
305.612
307.173
308.976
311.008
313.246
315.661
318.221
320.893
323.645
326.448
329.277
332.109
334.924
337.7
340.408
343.015
345.472
347.715
349.659
351.197
352.202
352.532
352.038
350.578
348.041
344.365
339.557
333.706
326.982
319.618
311.868
303.959
300.149
300.46
300.818
301.258
301.821
302.541
303.453
304.58
305.937
307.527
309.342
311.366
313.576
315.943
318.439
321.038
323.714
326.447
329.222
332.024
334.841
337.659
340.459
343.21
345.871
348.378
350.644
352.556
353.971
354.725
354.637
353.525
351.234
347.659
342.772
336.648
329.465
321.488
313.02
304.346
300.163
300.503
300.89
301.365
301.964
302.724
303.674
304.832
306.208
307.799
309.595
311.577
313.721
316.005
318.404
320.9
323.474
326.116
328.817
331.573
334.378
337.227
340.105
342.993
345.85
348.62
351.217
353.523
355.386
356.621
357.014
356.343
354.398
351.019
346.133
339.783
332.148
323.526
314.283
304.769
300.178
300.548
300.967
301.474
302.107
302.9
303.876
305.049
306.423
307.99
309.739
311.649
313.702
315.878
318.16
320.536
322.997
325.538
328.158
330.86
333.644
336.51
339.454
342.46
345.497
348.513
351.43
354.13
356.458
358.212
359.15
359.007
357.513
354.442
349.652
343.141
335.072
325.774
315.683
305.24
300.196
300.6
301.052
301.591
302.255
303.073
304.065
305.239
306.593
308.118
309.8
311.624
313.573
315.634
317.797
320.055
322.406
324.85
327.393
330.04
332.798
335.672
338.662
341.76
344.945
348.173
351.375
354.444
357.224
359.508
361.034
361.493
360.556
357.914
353.34
346.755
338.286
328.282
317.258
305.77
300.219
300.664
301.152
301.725
302.418
303.259
304.261
305.428
306.756
308.233
309.849
311.591
313.446
315.407
317.469
319.63
321.891
324.257
326.735
329.334
332.064
334.933
337.946
341.102
344.388
347.773
351.201
354.579
357.763
360.552
362.672
363.784
363.497
361.414
357.198
350.659
341.851
331.117
319.058
306.376
300.251
300.753
301.287
301.9
302.629
303.498
304.517
305.688
307.003
308.454
310.029
311.72
313.518
315.419
317.42
319.522
321.727
324.043
326.476
329.037
331.736
334.584
337.589
340.757
344.083
347.55
351.117
354.712
358.212
361.433
364.108
365.881
366.313
364.914
361.216
354.883
345.836
334.368
321.154
307.086
300.304
300.893
301.497
302.172
302.96
303.886
304.958
306.175
307.528
309.007
310.603
312.306
314.111
316.012
318.009
320.101
322.292
324.587
326.993
329.521
332.18
334.983
337.941
341.064
344.354
347.808
351.403
355.089
358.774
362.302
365.433
367.818
368.989
368.378
365.375
359.449
350.323
338.155
323.651
307.935
300.401
301.146
301.873
302.664
303.577
304.638
305.851
307.209
308.699
310.306
312.018
313.824
315.716
317.689
319.739
321.868
324.077
326.37
328.756
331.241
333.838
336.558
339.415
342.42
345.586
348.918
352.409
356.034
359.733
363.392
366.814
369.685
371.545
371.775
369.634
364.366
355.403
342.643
326.713
308.99
300.595
301.645
302.622
303.666
304.857
306.219
307.742
309.403
311.177
313.043
314.982
316.982
319.033
321.13
323.27
325.454
327.685
329.967
332.307
334.716
337.203
339.781
342.464
345.268
348.208
351.296
354.541
357.936
361.455
365.026
368.51
371.657
374.057
375.096
373.941
369.61
361.162
348.052
330.602
310.364
301.016
302.711
304.239
305.844
307.623
309.573
311.652
313.815
316.026
318.259
320.497
322.73
324.954
327.168
329.374
331.575
333.778
335.99
338.22
340.478
342.777
345.128
347.547
350.05
352.654
355.375
358.23
361.228
364.365
367.611
370.887
374.022
376.702
378.386
378.24
375.115
367.658
354.665
335.753
312.289
301.99
305.139
307.907
310.676
313.522
316.401
319.251
322.028
324.71
327.289
329.767
332.148
334.443
336.661
338.814
340.912
342.967
344.99
346.993
348.987
350.986
353.002
355.049
357.143
359.3
361.537
363.873
366.324
368.9
371.6
374.393
377.189
379.79
381.801
382.509
380.752
374.853
362.791
342.87
315.284
304.495
311.042
316.382
321.102
325.371
329.241
332.747
335.923
338.813
341.457
343.891
346.148
348.255
350.236
352.113
353.902
355.62
357.281
358.898
360.484
362.05
363.608
365.171
366.751
368.362
370.019
371.736
373.529
375.414
377.401
379.488
381.645
383.779
385.667
386.835
386.35
382.523
372.634
353.028
320.601
312.192
326.189
335.249
341.734
346.729
350.75
354.078
356.889
359.308
361.423
363.3
364.987
366.521
367.932
369.241
370.468
371.628
372.733
373.794
374.822
375.826
376.814
377.794
378.776
379.767
380.777
381.817
382.896
384.025
385.216
386.474
387.797
389.157
390.468
391.516
391.795
390.148
383.962
367.68
331.412
343.057
363.721
372.099
376.685
379.63
381.714
383.285
384.524
385.538
386.39
387.124
387.769
388.344
388.865
389.342
389.784
390.198
390.589
390.961
391.318
391.665
392.004
392.338
392.67
393.003
393.341
393.686
394.043
394.414
394.804
395.217
395.652
396.107
396.563
396.973
397.217
396.998
395.409
388.237
356.578
)
;

boundaryField
{
    movingWall
    {
        type            fixedValue;
        value           uniform 400;
    }
    fixedWalls
    {
        type            fixedValue;
        value           uniform 300;
    }
    frontAndBack
    {
        type            empty;
    }
}


// ************************************************************************* //
