/*--------------------------------*- C++ -*----------------------------------*\
| =========                 |                                                 |
| \\      /  F ield         | OpenFOAM: The Open Source CFD Toolbox           |
|  \\    /   O peration     | Version:  2206                                  |
|   \\  /    A nd           | Website:  www.openfoam.com                      |
|    \\/     M anipulation  |                                                 |
\*---------------------------------------------------------------------------*/
FoamFile
{
    version     2.0;
    format      ascii;
    arch        "LSB;label=32;scalar=64";
    class       volVectorField;
    location    "0.3";
    object      U;
}
// * * * * * * * * * * * * * * * * * * * * * * * * * * * * * * * * * * * * * //

dimensions      [0 1 -1 0 0 0 0];

internalField   nonuniform List<vector> 
1600
(
(6.03118e-05 -6.07627e-05 0)
(0.000155586 -5.7298e-05 0)
(0.000156676 -7.10591e-06 0)
(6.48448e-06 5.24347e-05 0)
(-0.000303411 0.000107997 0)
(-0.000756593 0.000154881 0)
(-0.00132858 0.000191727 0)
(-0.0019924 0.000218581 0)
(-0.00272082 0.000236017 0)
(-0.00348758 0.000244783 0)
(-0.00426793 0.00024567 0)
(-0.00503901 0.000239463 0)
(-0.00577996 0.000226923 0)
(-0.00647202 0.000208785 0)
(-0.00709856 0.000185758 0)
(-0.00764509 0.000158535 0)
(-0.00809928 0.000127797 0)
(-0.00845099 9.42247e-05 0)
(-0.0086923 5.85083e-05 0)
(-0.00881758 2.13559e-05 0)
(-0.00882352 -1.64978e-05 0)
(-0.00870928 -5.42858e-05 0)
(-0.00847654 -9.12047e-05 0)
(-0.0081296 -0.000126415 0)
(-0.00767548 -0.000159044 0)
(-0.00712395 -0.000188194 0)
(-0.00648758 -0.000212951 0)
(-0.00578171 -0.000232401 0)
(-0.00502438 -0.000245644 0)
(-0.00423619 -0.000251812 0)
(-0.00344005 -0.000250094 0)
(-0.0026609 -0.000239748 0)
(-0.00192526 -0.000220138 0)
(-0.00126061 -0.000190784 0)
(-0.000694529 -0.000151485 0)
(-0.000253255 -0.000102664 0)
(4.07084e-05 -4.62043e-05 0)
(0.000174232 1.26597e-05 0)
(0.000160329 6.02157e-05 0)
(6.02868e-05 6.00438e-05 0)
(5.85669e-05 -0.0001573 0)
(7.23029e-05 -6.97443e-05 0)
(-0.00017868 0.000182193 0)
(-0.000772866 0.000476872 0)
(-0.00172482 0.000760975 0)
(-0.00300798 0.00100937 0)
(-0.00457378 0.00121077 0)
(-0.00636283 0.00136126 0)
(-0.00831136 0.00146076 0)
(-0.0103552 0.00151116 0)
(-0.0124319 0.00151544 0)
(-0.0144828 0.00147715 0)
(-0.0164532 0.00140018 0)
(-0.0182937 0.00128857 0)
(-0.0199598 0.00114646 0)
(-0.0214128 0.000978042 0)
(-0.0226197 0.000787586 0)
(-0.0235532 0.000579422 0)
(-0.0241923 0.000357985 0)
(-0.0245221 0.000127834 0)
(-0.024534 -0.000106315 0)
(-0.0242262 -0.000339575 0)
(-0.0236037 -0.000566886 0)
(-0.0226785 -0.000783029 0)
(-0.0214697 -0.000982656 0)
(-0.0200038 -0.00116035 0)
(-0.0183144 -0.0013107 0)
(-0.0164422 -0.00142842 0)
(-0.0144348 -0.00150845 0)
(-0.0123456 -0.00154614 0)
(-0.0102339 -0.00153739 0)
(-0.00816302 -0.00147892 0)
(-0.00619898 -0.00136858 0)
(-0.00440855 -0.0012058 0)
(-0.00285614 -0.000992493 0)
(-0.00159949 -0.000734696 0)
(-0.000683046 -0.000445967 0)
(-0.000126964 -0.000153466 0)
(9.19924e-05 8.83746e-05 0)
(6.17803e-05 0.000160713 0)
(1.14069e-05 -0.000162902 0)
(-0.000172032 0.000178267 0)
(-0.000804129 0.000813743 0)
(-0.00193104 0.00153616 0)
(-0.00355367 0.0022385 0)
(-0.00563609 0.0028613 0)
(-0.0081135 0.00337298 0)
(-0.0109044 0.00375915 0)
(-0.0139193 0.00401565 0)
(-0.0170662 0.00414443 0)
(-0.0202544 0.00415117 0)
(-0.0233969 0.00404387 0)
(-0.0264126 0.00383195 0)
(-0.0292269 0.00352572 0)
(-0.031773 0.00313611 0)
(-0.0339922 0.00267441 0)
(-0.0358342 0.00215228 0)
(-0.0372579 0.00158165 0)
(-0.0382312 0.000974819 0)
(-0.0387317 0.000344453 0)
(-0.0387468 -0.000296379 0)
(-0.0382739 -0.000934182 0)
(-0.0373211 -0.00155505 0)
(-0.0359068 -0.00214472 0)
(-0.0340605 -0.00268869 0)
(-0.0318224 -0.00317239 0)
(-0.0292435 -0.00358143 0)
(-0.0263852 -0.00390186 0)
(-0.0233186 -0.0041206 0)
(-0.0201236 -0.00422591 0)
(-0.0168877 -0.00420791 0)
(-0.0137037 -0.00405932 0)
(-0.0106675 -0.00377646 0)
(-0.0078745 -0.00336061 0)
(-0.0054152 -0.00282018 0)
(-0.00336905 -0.00217453 0)
(-0.00179573 -0.00146028 0)
(-0.000723144 -0.000741208 0)
(-0.000138882 -0.000126511 0)
(1.76823e-05 0.00017998 0)
(-4.54535e-05 -2.20405e-05 0)
(-0.00046443 0.000767867 0)
(-0.00153536 0.00194118 0)
(-0.00324162 0.00322634 0)
(-0.00555411 0.0044677 0)
(-0.00842188 0.00557041 0)
(-0.0117639 0.00647946 0)
(-0.0154804 0.00716674 0)
(-0.0194614 0.00762163 0)
(-0.0235937 0.00784481 0)
(-0.0277644 0.00784442 0)
(-0.0318647 0.00763348 0)
(-0.0357921 0.00722824 0)
(-0.0394523 0.00664711 0)
(-0.0427602 0.00590996 0)
(-0.0456409 0.0050377 0)
(-0.0480303 0.00405208 0)
(-0.0498758 0.00297558 0)
(-0.0511364 0.00183137 0)
(-0.0517837 0.000643383 0)
(-0.0518015 -0.000563726 0)
(-0.0511871 -0.00176453 0)
(-0.0499506 -0.00293291 0)
(-0.0481162 -0.00404219 0)
(-0.0457216 -0.00506538 0)
(-0.0428182 -0.00597546 0)
(-0.039471 -0.00674593 0)
(-0.035758 -0.00735135 0)
(-0.0317693 -0.00776809 0)
(-0.0276056 -0.0079753 0)
(-0.0233766 -0.00795593 0)
(-0.0191984 -0.00769822 0)
(-0.0151899 -0.00719745 0)
(-0.011469 -0.0064584 0)
(-0.00814694 -0.00549897 0)
(-0.00532171 -0.0043556 0)
(-0.00306872 -0.00309184 0)
(-0.00142982 -0.00180987 0)
(-0.000420066 -0.00066961 0)
(-3.67079e-05 5.97148e-05 0)
(-0.000100544 0.000278576 0)
(-0.000761218 0.00172899 0)
(-0.00228965 0.00359164 0)
(-0.00459318 0.0055555 0)
(-0.00760227 0.00742791 0)
(-0.0112449 0.00908377 0)
(-0.0154214 0.0104461 0)
(-0.0200136 0.0114729 0)
(-0.024894 0.0121463 0)
(-0.0299312 0.0124651 0)
(-0.0349944 0.0124397 0)
(-0.0399571 0.0120886 0)
(-0.0446999 0.0114356 0)
(-0.0491126 0.0105086 0)
(-0.0530954 0.00933779 0)
(-0.0565605 0.00795569 0)
(-0.0594325 0.00639617 0)
(-0.0616496 0.00469444 0)
(-0.0631638 0.0028869 0)
(-0.0639414 0.00101116 0)
(-0.0639638 -0.000894023 0)
(-0.0632275 -0.00278875 0)
(-0.0617448 -0.00463213 0)
(-0.0595439 -0.00638248 0)
(-0.0566691 -0.00799777 0)
(-0.0531809 -0.00943611 0)
(-0.0491552 -0.0106566 0)
(-0.0446834 -0.01162 0)
(-0.0398704 -0.0122905 0)
(-0.0348339 -0.0126367 0)
(-0.0297015 -0.0126332 0)
(-0.0246079 -0.0122636 0)
(-0.0196915 -0.0115222 0)
(-0.015089 -0.0104181 0)
(-0.0109305 -0.00897974 0)
(-0.0073327 -0.0072614 0)
(-0.00438965 -0.00535266 0)
(-0.00216348 -0.00338986 0)
(-0.000707245 -0.00157337 0)
(-8.96646e-05 -0.00021477 0)
(-0.000150804 0.000732593 0)
(-0.00104591 0.00306238 0)
(-0.00302936 0.00577238 0)
(-0.00592998 0.00853099 0)
(-0.00963266 0.0111201 0)
(-0.0140395 0.0133914 0)
(-0.0190292 0.0152498 0)
(-0.0244642 0.0166411 0)
(-0.0301994 0.017541 0)
(-0.0360871 0.0179469 0)
(-0.041981 0.0178719 0)
(-0.0477397 0.0173405 0)
(-0.05323 0.0163851 0)
(-0.0583285 0.0150438 0)
(-0.0629239 0.0133589 0)
(-0.0669178 0.0113757 0)
(-0.0702261 0.00914202 0)
(-0.0727793 0.00670748 0)
(-0.0745238 0.00412361 0)
(-0.0754218 0.00144363 0)
(-0.0754523 -0.00127759 0)
(-0.0746113 -0.00398366 0)
(-0.0729123 -0.00661682 0)
(-0.0703867 -0.00911836 0)
(-0.0670838 -0.0114291 0)
(-0.0630708 -0.0134903 0)
(-0.0584324 -0.0152447 0)
(-0.0532703 -0.0166376 0)
(-0.0477018 -0.0176192 0)
(-0.0418579 -0.018146 0)
(-0.0358815 -0.0181838 0)
(-0.0299234 -0.0177101 0)
(-0.0241388 -0.0167182 0)
(-0.0186825 -0.015221 0)
(-0.0137032 -0.013257 0)
(-0.00933817 -0.010897 0)
(-0.00570345 -0.00825345 0)
(-0.00288645 -0.00549105 0)
(-0.000983654 -0.00284029 0)
(-0.000137964 -0.000637802 0)
(-0.000196132 0.00132968 0)
(-0.00131414 0.00475663 0)
(-0.00374065 0.00847576 0)
(-0.00722885 0.0121471 0)
(-0.0116164 0.015537 0)
(-0.0167765 0.0184811 0)
(-0.0225635 0.0208709 0)
(-0.0288186 0.0226432 0)
(-0.035379 0.0237693 0)
(-0.042081 0.0242467 0)
(-0.0487638 0.0240923 0)
(-0.055273 0.0233376 0)
(-0.0614636 0.0220243 0)
(-0.0672015 0.0202024 0)
(-0.0723657 0.017927 0)
(-0.0768496 0.0152578 0)
(-0.0805618 0.0122577 0)
(-0.0834271 0.00899221 0)
(-0.085387 0.00552946 0)
(-0.0864006 0.00193978 0)
(-0.0864445 -0.00170437 0)
(-0.0855142 -0.0053285 0)
(-0.0836238 -0.00885642 0)
(-0.0808067 -0.0122107 0)
(-0.0771156 -0.0153135 0)
(-0.0726229 -0.0180873 0)
(-0.0674198 -0.0204569 0)
(-0.0616163 -0.0223506 0)
(-0.0553395 -0.0237029 0)
(-0.048732 -0.024457 0)
(-0.0419495 -0.024568 0)
(-0.0351577 -0.0240066 0)
(-0.0285279 -0.0227633 0)
(-0.0222329 -0.0208538 0)
(-0.0164414 -0.0183247 0)
(-0.011313 -0.0152607 0)
(-0.00698914 -0.0117933 0)
(-0.0035859 -0.00810923 0)
(-0.00124514 -0.00446105 0)
(-0.000181487 -0.00119968 0)
(-0.000237456 0.00206014 0)
(-0.00156712 0.00679719 0)
(-0.00442249 0.0116883 0)
(-0.00848561 0.0163925 0)
(-0.0135473 0.0206677 0)
(-0.0194501 0.0243399 0)
(-0.026022 0.0272926 0)
(-0.0330817 0.0294575 0)
(-0.0404474 0.0308042 0)
(-0.0479392 0.0313325 0)
(-0.0553827 0.0310649 0)
(-0.0626115 0.0300412 0)
(-0.0694699 0.0283143 0)
(-0.0758148 0.0259466 0)
(-0.0815175 0.0230077 0)
(-0.0864645 0.0195725 0)
(-0.0905589 0.0157201 0)
(-0.0937207 0.0115332 0)
(-0.0958877 0.00709744 0)
(-0.097016 0.00250139 0)
(-0.0970805 -0.00216377 0)
(-0.0960756 -0.00680433 0)
(-0.0940152 -0.0113245 0)
(-0.0909339 -0.0156268 0)
(-0.0868865 -0.0196134 0)
(-0.0819488 -0.0231867 0)
(-0.076217 -0.0262519 0)
(-0.0698072 -0.0287188 0)
(-0.0628548 -0.0305045 0)
(-0.0555122 -0.0315371 0)
(-0.047947 -0.0317592 0)
(-0.0403389 -0.0311328 0)
(-0.0328755 -0.0296438 0)
(-0.0257481 -0.0273083 0)
(-0.019147 -0.0241783 0)
(-0.0132565 -0.0203491 0)
(-0.00824604 -0.015967 0)
(-0.00426259 -0.0112358 0)
(-0.00149355 -0.00642393 0)
(-0.000221249 -0.00189152 0)
(-0.000275916 0.00291618 0)
(-0.0018082 0.00917069 0)
(-0.00507981 0.0153965 0)
(-0.00970597 0.0212551 0)
(-0.0154317 0.0265014 0)
(-0.0220682 0.0309573 0)
(-0.0294155 0.034503 0)
(-0.0372687 0.0370692 0)
(-0.045426 0.0386277 0)
(-0.0536911 0.0391829 0)
(-0.0618758 0.0387654 0)
(-0.0698024 0.0374255 0)
(-0.0773057 0.0352284 0)
(-0.0842349 0.0322507 0)
(-0.0904547 0.0285774 0)
(-0.0958463 0.0242999 0)
(-0.100308 0.0195144 0)
(-0.103757 0.0143215 0)
(-0.106127 0.00882515 0)
(-0.107372 0.00313289 0)
(-0.107466 -0.00264464 0)
(-0.106401 -0.00839376 0)
(-0.104191 -0.0139982 0)
(-0.100869 -0.0193397 0)
(-0.0964927 -0.0242989 0)
(-0.0911386 -0.0287574 0)
(-0.0849064 -0.0325992 0)
(-0.0779171 -0.0357137 0)
(-0.0703125 -0.0379989 0)
(-0.0622539 -0.0393658 0)
(-0.0539201 -0.0397424 0)
(-0.0455042 -0.0390791 0)
(-0.0372106 -0.037355 0)
(-0.0292505 -0.0345831 0)
(-0.0218372 -0.0308179 0)
(-0.0151821 -0.0261616 0)
(-0.00948443 -0.0207711 0)
(-0.00492395 -0.0148635 0)
(-0.00173315 -0.00871953 0)
(-0.000258547 -0.00270682 0)
(-0.000312566 0.0038923 0)
(-0.00204127 0.0118668 0)
(-0.00571992 0.0195894 0)
(-0.0109001 0.026725 0)
(-0.0172822 0.0330296 0)
(-0.0246455 0.0383253 0)
(-0.0327614 0.0424936 0)
(-0.0414001 0.0454684 0)
(-0.050339 0.0472272 0)
(-0.0593652 0.047783 0)
(-0.0682766 0.0471769 0)
(-0.0768847 0.0454718 0)
(-0.0850155 0.0427475 0)
(-0.0925115 0.0390962 0)
(-0.0992321 0.0346196 0)
(-0.105054 0.0294265 0)
(-0.109873 0.0236312 0)
(-0.113603 0.0173525 0)
(-0.116176 0.0107135 0)
(-0.117543 0.00384083 0)
(-0.117676 -0.00313492 0)
(-0.116566 -0.0100797 0)
(-0.114225 -0.0168563 0)
(-0.110686 -0.0233249 0)
(-0.106006 -0.0293443 0)
(-0.100261 -0.0347734 0)
(-0.0935535 -0.039474 0)
(-0.0860072 -0.0433133 0)
(-0.0777693 -0.0461684 0)
(-0.0690088 -0.0479304 0)
(-0.0599148 -0.0485099 0)
(-0.0506942 -0.0478431 0)
(-0.0415687 -0.0458983 0)
(-0.0327703 -0.0426825 0)
(-0.0245374 -0.0382485 0)
(-0.0171101 -0.0327018 0)
(-0.0107199 -0.0262067 0)
(-0.00558031 -0.0189898 0)
(-0.00196901 -0.0113429 0)
(-0.000294645 -0.00364185 0)
(-0.000348311 0.00498522 0)
(-0.00227012 0.0148791 0)
(-0.00635068 0.0242597 0)
(-0.0120799 0.0327957 0)
(-0.0191138 0.0402466 0)
(-0.0271997 0.0464383 0)
(-0.0360794 0.051258 0)
(-0.0454974 0.0546472 0)
(-0.05521 0.0565933 0)
(-0.0649867 0.057121 0)
(-0.0746121 0.0562854 0)
(-0.083887 0.0541649 0)
(-0.0926297 0.0508558 0)
(-0.100677 0.0464678 0)
(-0.107884 0.0411207 0)
(-0.114125 0.0349417 0)
(-0.119292 0.0280635 0)
(-0.123298 0.020624 0)
(-0.126074 0.0127652 0)
(-0.127569 0.00463333 0)
(-0.127752 -0.0036214 0)
(-0.126614 -0.0118445 0)
(-0.124163 -0.0198775 0)
(-0.120431 -0.0275587 0)
(-0.115473 -0.0347243 0)
(-0.109364 -0.04121 0)
(-0.102206 -0.0468535 0)
(-0.0941248 -0.0514984 0)
(-0.0852716 -0.054998 0)
(-0.0758217 -0.0572212 0)
(-0.0659742 -0.0580578 0)
(-0.0559497 -0.057426 0)
(-0.0459873 -0.0552796 0)
(-0.0363413 -0.0516153 0)
(-0.0272766 -0.0464802 0)
(-0.0190645 -0.0399791 0)
(-0.0119702 -0.0322803 0)
(-0.00624294 -0.0236181 0)
(-0.00220623 -0.0142943 0)
(-0.000330685 -0.00469581 0)
(-0.000383901 0.00619364 0)
(-0.00249817 0.0182048 0)
(-0.00697967 0.0294043 0)
(-0.0132569 0.0394643 0)
(-0.0209418 0.0481494 0)
(-0.0297485 0.0552929 0)
(-0.0393888 0.0607917 0)
(-0.0495808 0.0645992 0)
(-0.0600589 0.0667169 0)
(-0.0705752 0.0671855 0)
(-0.0809008 0.0660776 0)
(-0.0908267 0.0634898 0)
(-0.100164 0.0595379 0)
(-0.108746 0.0543507 0)
(-0.116423 0.0480677 0)
(-0.123069 0.0408351 0)
(-0.128575 0.0328051 0)
(-0.132853 0.0241345 0)
(-0.135832 0.0149842 0)
(-0.137461 0.00551958 0)
(-0.137708 -0.00408957 0)
(-0.136559 -0.0136687 0)
(-0.134021 -0.0230384 0)
(-0.130123 -0.0320152 0)
(-0.124915 -0.0404121 0)
(-0.118471 -0.0480405 0)
(-0.110891 -0.0547133 0)
(-0.102301 -0.060248 0)
(-0.0928529 -0.064472 0)
(-0.0827286 -0.0672284 0)
(-0.0721355 -0.0683828 0)
(-0.0613077 -0.0678309 0)
(-0.0505024 -0.0655075 0)
(-0.0399969 -0.061394 0)
(-0.0300846 -0.0555277 0)
(-0.0210697 -0.0480085 0)
(-0.0132536 -0.0390053 0)
(-0.00692309 -0.0287585 0)
(-0.00244972 -0.0175799 0)
(-0.000367683 -0.00587056 0)
(-0.000419962 0.007518 0)
(-0.00272847 0.0218448 0)
(-0.00761384 0.0350244 0)
(-0.0144422 0.0467317 0)
(-0.0227802 0.0567381 0)
(-0.0323082 0.0648876 0)
(-0.0427069 0.0710907 0)
(-0.053667 0.0753175 0)
(-0.0649006 0.0775879 0)
(-0.0761426 0.0779633 0)
(-0.0871512 0.0765373 0)
(-0.0977082 0.0734288 0)
(-0.107619 0.0687752 0)
(-0.116713 0.062727 0)
(-0.124841 0.0554444 0)
(-0.131875 0.0470942 0)
(-0.137707 0.0378479 0)
(-0.142249 0.0278812 0)
(-0.145431 0.0173737 0)
(-0.1472 0.00650926 0)
(-0.147523 -0.00452359 0)
(-0.146383 -0.0155309 0)
(-0.143784 -0.0263131 0)
(-0.13975 -0.0366649 0)
(-0.134327 -0.0463762 0)
(-0.127583 -0.0552338 0)
(-0.119616 -0.0630242 0)
(-0.110548 -0.0695369 0)
(-0.100532 -0.0745707 0)
(-0.0897533 -0.0779392 0)
(-0.078427 -0.0794795 0)
(-0.0667995 -0.0790601 0)
(-0.0551463 -0.0765912 0)
(-0.0437688 -0.072034 0)
(-0.03299 -0.0654103 0)
(-0.0231494 -0.0568107 0)
(-0.0145875 -0.0464016 0)
(-0.00763161 -0.0344276 0)
(-0.00270407 -0.0212111 0)
(-0.000406552 -0.00717053 0)
(-0.000457027 0.00896025 0)
(-0.00296371 0.0258032 0)
(-0.00825951 0.0411249 0)
(-0.0156458 0.0546023 0)
(-0.0246421 0.0660154 0)
(-0.0348933 0.075222 0)
(-0.0460477 0.0821508 0)
(-0.057768 0.0867931 0)
(-0.0697437 0.0891928 0)
(-0.0816926 0.0894364 0)
(-0.0933604 0.0876434 0)
(-0.104521 0.0839582 0)
(-0.114977 0.0785432 0)
(-0.124554 0.0715728 0)
(-0.133105 0.0632296 0)
(-0.140503 0.0537015 0)
(-0.146643 0.0431796 0)
(-0.151437 0.0318585 0)
(-0.154817 0.0199355 0)
(-0.156731 0.00761181 0)
(-0.157143 -0.00490636 0)
(-0.156035 -0.017407 0)
(-0.153405 -0.0296711 0)
(-0.149271 -0.0414727 0)
(-0.143672 -0.0525789 0)
(-0.136673 -0.0627515 0)
(-0.128361 -0.0717491 0)
(-0.118857 -0.079332 0)
(-0.10831 -0.0852667 0)
(-0.0969057 -0.0893341 0)
(-0.0848659 -0.0913374 0)
(-0.0724482 -0.0911125 0)
(-0.0599457 -0.0885391 0)
(-0.0476844 -0.0835516 0)
(-0.0360188 -0.0761503 0)
(-0.0253261 -0.0664116 0)
(-0.015989 -0.0544954 0)
(-0.00837878 -0.0406485 0)
(-0.00297358 -0.0252044 0)
(-0.000448128 -0.00860245 0)
(-0.000495571 0.0105237 0)
(-0.00320635 0.0300871 0)
(-0.00892244 0.0477143 0)
(-0.0168768 0.0630836 0)
(-0.0265388 0.0759857 0)
(-0.0375157 0.086296 0)
(-0.0494219 0.0939659 0)
(-0.0618909 0.0990136 0)
(-0.0745894 0.101513 0)
(-0.0872185 0.10158 0)
(-0.099513 0.0993663 0)
(-0.111241 0.0950455 0)
(-0.122201 0.0888082 0)
(-0.132222 0.0808553 0)
(-0.141158 0.0713933 0)
(-0.148886 0.0606319 0)
(-0.155306 0.0487821 0)
(-0.160334 0.0360561 0)
(-0.163904 0.0226682 0)
(-0.165965 0.00883559 0)
(-0.166479 -0.00521982 0)
(-0.165426 -0.0192695 0)
(-0.162798 -0.033077 0)
(-0.158607 -0.0463967 0)
(-0.152884 -0.0589737 0)
(-0.145682 -0.0705448 0)
(-0.137083 -0.0808403 0)
(-0.127195 -0.0895888 0)
(-0.116166 -0.0965222 0)
(-0.104178 -0.101384 0)
(-0.0914559 -0.103938 0)
(-0.0782664 -0.103981 0)
(-0.0649197 -0.101356 0)
(-0.0517664 -0.0959623 0)
(-0.039194 -0.0877723 0)
(-0.0276201 -0.0768414 0)
(-0.0174735 -0.0633187 0)
(-0.00917435 -0.0474506 0)
(-0.00326237 -0.0295815 0)
(-0.000493203 -0.0101753 0)
(-0.000536047 0.0122127 0)
(-0.00345877 0.0347064 0)
(-0.00960819 0.054804 0)
(-0.0181438 0.0721855 0)
(-0.0284806 0.0866546 0)
(-0.0401855 0.0981082 0)
(-0.0528366 0.106526 0)
(-0.0660371 0.111961 0)
(-0.079431 0.114521 0)
(-0.0927033 0.11436 0)
(-0.105579 0.111666 0)
(-0.117823 0.106646 0)
(-0.129234 0.0995242 0)
(-0.139644 0.0905295 0)
(-0.148913 0.0798942 0)
(-0.156926 0.0678501 0)
(-0.163589 0.0546279 0)
(-0.168823 0.0404569 0)
(-0.172567 0.0255662 0)
(-0.174772 0.0101869 0)
(-0.1754 -0.00544534 0)
(-0.174427 -0.0210881 0)
(-0.17184 -0.0364896 0)
(-0.167643 -0.0513865 0)
(-0.161855 -0.0655034 0)
(-0.154519 -0.0785526 0)
(-0.145701 -0.0902359 0)
(-0.135502 -0.100248 0)
(-0.124057 -0.108284 0)
(-0.111543 -0.114045 0)
(-0.0981843 -0.11725 0)
(-0.0842545 -0.11765 0)
(-0.0700786 -0.11504 0)
(-0.0560316 -0.109279 0)
(-0.042535 -0.100301 0)
(-0.03005 -0.0881333 0)
(-0.019056 -0.0729083 0)
(-0.0100277 -0.0548684 0)
(-0.00357443 -0.0343686 0)
(-0.000542561 -0.0119 0)
(-0.000578927 0.0140332 0)
(-0.0037234 0.0396737 0)
(-0.0103224 0.0624089 0)
(-0.0194552 0.0819204 0)
(-0.0304772 0.0980278 0)
(-0.042911 0.110655 0)
(-0.0562956 0.119818 0)
(-0.0702028 0.125608 0)
(-0.0842536 0.128179 0)
(-0.0981182 0.127728 0)
(-0.111515 0.124486 0)
(-0.124206 0.1187 0)
(-0.135995 0.110629 0)
(-0.146722 0.100535 0)
(-0.156256 0.0886758 0)
(-0.164492 0.0753074 0)
(-0.171345 0.0606787 0)
(-0.176746 0.0450346 0)
(-0.18064 0.0286171 0)
(-0.182981 0.0116688 0)
(-0.183732 -0.00556437 0)
(-0.182867 -0.0228289 0)
(-0.180365 -0.0398607 0)
(-0.17622 -0.0563816 0)
(-0.17044 -0.0720978 0)
(-0.163051 -0.0866983 0)
(-0.154105 -0.0998566 0)
(-0.143684 -0.111233 0)
(-0.13191 -0.120482 0)
(-0.118949 -0.127257 0)
(-0.105019 -0.131227 0)
(-0.0903983 -0.132088 0)
(-0.0754223 -0.12958 0)
(-0.0604897 -0.123508 0)
(-0.046057 -0.113759 0)
(-0.0326322 -0.100322 0)
(-0.0207503 -0.0833051 0)
(-0.0109481 -0.062942 0)
(-0.0039138 -0.0395966 0)
(-0.000597006 -0.0137897 0)
(-0.000624748 0.0159921 0)
(-0.004003 0.0450044 0)
(-0.0110714 0.0705465 0)
(-0.0208202 0.0923022 0)
(-0.0325386 0.110111 0)
(-0.0456995 0.12393 0)
(-0.0597998 0.133819 0)
(-0.0743783 0.139919 0)
(-0.0890331 0.142436 0)
(-0.103422 0.141621 0)
(-0.117257 0.137753 0)
(-0.130306 0.131127 0)
(-0.14238 0.12204 0)
(-0.15333 0.11079 0)
(-0.163038 0.0976636 0)
(-0.171415 0.0829384 0)
(-0.178389 0.0668816 0)
(-0.183904 0.0497517 0)
(-0.187912 0.0318008 0)
(-0.190373 0.0132795 0)
(-0.191254 -0.00555929 0)
(-0.190523 -0.0244552 0)
(-0.188155 -0.0431355 0)
(-0.184131 -0.061311 0)
(-0.178445 -0.0786722 0)
(-0.171103 -0.0948875 0)
(-0.162138 -0.109603 0)
(-0.151609 -0.122443 0)
(-0.139619 -0.13302 0)
(-0.126315 -0.140936 0)
(-0.111907 -0.145801 0)
(-0.096666 -0.147248 0)
(-0.0809382 -0.14495 0)
(-0.0651426 -0.138646 0)
(-0.0497709 -0.128164 0)
(-0.0353811 -0.113442 0)
(-0.0225701 -0.0945533 0)
(-0.0119448 -0.0717163 0)
(-0.0042847 -0.0453008 0)
(-0.000657408 -0.0158598 0)
(-0.000674177 0.018098 0)
(-0.00430094 0.0507172 0)
(-0.0118626 0.0792381 0)
(-0.0222497 0.103347 0)
(-0.0346758 0.122908 0)
(-0.0485583 0.13792 0)
(-0.0633477 0.148497 0)
(-0.0785481 0.154841 0)
(-0.0937357 0.157222 0)
(-0.108558 0.155952 0)
(-0.122727 0.15137 0)
(-0.136018 0.143822 0)
(-0.148254 0.133652 0)
(-0.159306 0.121192 0)
(-0.169074 0.106761 0)
(-0.177488 0.0906578 0)
(-0.184493 0.0731666 0)
(-0.19005 0.0545564 0)
(-0.194123 0.0350865 0)
(-0.19668 0.015011 0)
(-0.197691 -0.00541453 0)
(-0.197122 -0.0259276 0)
(-0.194941 -0.0462519 0)
(-0.191116 -0.0660914 0)
(-0.185624 -0.0851255 0)
(-0.178449 -0.103005 0)
(-0.169597 -0.11935 0)
(-0.159103 -0.133752 0)
(-0.147039 -0.145776 0)
(-0.13353 -0.154969 0)
(-0.118765 -0.160877 0)
(-0.103005 -0.163058 0)
(-0.0865991 -0.161105 0)
(-0.0699828 -0.154677 0)
(-0.0536826 -0.143526 0)
(-0.0383093 -0.127525 0)
(-0.0245285 -0.106699 0)
(-0.0130277 -0.0812404 0)
(-0.00469175 -0.0515213 0)
(-0.000724753 -0.0181277 0)
(-0.000728089 0.0203616 0)
(-0.00462156 0.0568352 0)
(-0.0127058 0.0885088 0)
(-0.0237571 0.115072 0)
(-0.0369023 0.13642 0)
(-0.0514952 0.152606 0)
(-0.0669354 0.163809 0)
(-0.0826908 0.170307 0)
(-0.0983169 0.172445 0)
(-0.113454 0.170612 0)
(-0.127821 0.165212 0)
(-0.141205 0.156653 0)
(-0.153452 0.145327 0)
(-0.164452 0.131609 0)
(-0.174136 0.115845 0)
(-0.182455 0.098357 0)
(-0.189379 0.0794434 0)
(-0.194888 0.0593808 0)
(-0.198961 0.0384309 0)
(-0.201578 0.0168472 0)
(-0.202712 -0.00511788 0)
(-0.20233 -0.0272052 0)
(-0.200393 -0.0491407 0)
(-0.196855 -0.0706275 0)
(-0.191672 -0.0913391 0)
(-0.184805 -0.110913 0)
(-0.176227 -0.128948 0)
(-0.16594 -0.145001 0)
(-0.153981 -0.158592 0)
(-0.140441 -0.169211 0)
(-0.125479 -0.176327 0)
(-0.109338 -0.179415 0)
(-0.0923602 -0.177974 0)
(-0.0749918 -0.171565 0)
(-0.0577923 -0.159844 0)
(-0.0414277 -0.142599 0)
(-0.0266395 -0.119789 0)
(-0.0142077 -0.0915681 0)
(-0.00514024 -0.058303 0)
(-0.000800204 -0.0206135 0)
(-0.000787671 0.0227958 0)
(-0.00497067 0.0633867 0)
(-0.0136134 0.0983889 0)
(-0.0253598 0.127497 0)
(-0.0392349 0.150647 0)
(-0.0545196 0.167958 0)
(-0.0705569 0.179693 0)
(-0.0867774 0.186222 0)
(-0.102719 0.187985 0)
(-0.11802 0.185456 0)
(-0.132411 0.17912 0)
(-0.145702 0.169451 0)
(-0.157768 0.156898 0)
(-0.16853 0.141875 0)
(-0.177951 0.124762 0)
(-0.186014 0.1059 0)
(-0.192717 0.0855984 0)
(-0.198064 0.0641372 0)
(-0.202054 0.041776 0)
(-0.204681 0.0187619 0)
(-0.205924 -0.00466206 0)
(-0.205752 -0.0282466 0)
(-0.204118 -0.0517267 0)
(-0.200964 -0.0748115 0)
(-0.196221 -0.0971754 0)
(-0.189824 -0.118449 0)
(-0.181709 -0.138214 0)
(-0.171838 -0.155997 0)
(-0.160202 -0.171274 0)
(-0.146849 -0.183472 0)
(-0.131897 -0.191981 0)
(-0.115558 -0.196178 0)
(-0.0981548 -0.195454 0)
(-0.0801377 -0.189248 0)
(-0.0620938 -0.177098 0)
(-0.0447454 -0.158681 0)
(-0.0289178 -0.133869 0)
(-0.0154973 -0.102757 0)
(-0.00563651 -0.0656967 0)
(-0.000885199 -0.0233406 0)
(-0.000854575 0.0254174 0)
(-0.00535619 0.0704069 0)
(-0.0146026 0.108915 0)
(-0.0270809 0.140644 0)
(-0.0416958 0.165582 0)
(-0.0576431 0.183934 0)
(-0.0742034 0.196067 0)
(-0.0907698 0.202468 0)
(-0.106866 0.203686 0)
(-0.122137 0.200303 0)
(-0.136337 0.192893 0)
(-0.149305 0.182008 0)
(-0.160954 0.168153 0)
(-0.17125 0.15179 0)
(-0.180192 0.133326 0)
(-0.187804 0.113122 0)
(-0.194118 0.0914922 0)
(-0.199165 0.0687168 0)
(-0.20297 0.0450471 0)
(-0.205541 0.020717 0)
(-0.20687 -0.00404641 0)
(-0.206925 -0.0290112 0)
(-0.205655 -0.0539293 0)
(-0.202987 -0.0785239 0)
(-0.198831 -0.102478 0)
(-0.193087 -0.125424 0)
(-0.185655 -0.146933 0)
(-0.176445 -0.166507 0)
(-0.165396 -0.18358 0)
(-0.1525 -0.197515 0)
(-0.137819 -0.207618 0)
(-0.121519 -0.213158 0)
(-0.10389 -0.213396 0)
(-0.0853719 -0.20763 0)
(-0.0665728 -0.195245 0)
(-0.04827 -0.175779 0)
(-0.0313798 -0.148982 0)
(-0.0169115 -0.11487 0)
(-0.00618846 -0.0737595 0)
(-0.000981573 -0.0263357 0)
(-0.000931123 0.0282478 0)
(-0.00578907 0.0779411 0)
(-0.0156965 0.120134 0)
(-0.0289513 0.154537 0)
(-0.0443135 0.181211 0)
(-0.0608794 0.200472 0)
(-0.0778615 0.21282 0)
(-0.0946165 0.218884 0)
(-0.110662 0.219351 0)
(-0.12566 0.214924 0)
(-0.139397 0.206285 0)
(-0.15176 0.194066 0)
(-0.162711 0.17884 0)
(-0.172266 0.16111 0)
(-0.180474 0.141314 0)
(-0.187405 0.119824 0)
(-0.193129 0.0969578 0)
(-0.197714 0.0729879 0)
(-0.201209 0.0481509 0)
(-0.203643 0.0226609 0)
(-0.20502 -0.00327867 0)
(-0.205314 -0.0294615 0)
(-0.204467 -0.0556647 0)
(-0.202394 -0.0816349 0)
(-0.198983 -0.107074 0)
(-0.194099 -0.131624 0)
(-0.187597 -0.154855 0)
(-0.179334 -0.176255 0)
(-0.169185 -0.195218 0)
(-0.157072 -0.211048 0)
(-0.142986 -0.222961 0)
(-0.127028 -0.230108 0)
(-0.109436 -0.231602 0)
(-0.0906238 -0.226569 0)
(-0.0712043 -0.21421 0)
(-0.0520068 -0.19388 0)
(-0.0340449 -0.165168 0)
(-0.0184693 -0.127973 0)
(-0.0068063 -0.0825568 0)
(-0.00109176 -0.0296305 0)
(-0.00102062 0.031315 0)
(-0.00628453 0.0860474 0)
(-0.0169265 0.132102 0)
(-0.0310117 0.169204 0)
(-0.0471242 0.197513 0)
(-0.0642437 0.217488 0)
(-0.0815093 0.229805 0)
(-0.0982461 0.235266 0)
(-0.113976 0.234727 0)
(-0.128395 0.229035 0)
(-0.14134 0.218991 0)
(-0.152757 0.205318 0)
(-0.162671 0.188655 0)
(-0.171163 0.16955 0)
(-0.17834 0.148463 0)
(-0.184323 0.125775 0)
(-0.189229 0.101799 0)
(-0.193162 0.0767947 0)
(-0.196203 0.0509752 0)
(-0.198402 0.0245275 0)
(-0.199778 -0.00237664 0)
(-0.200312 -0.0295646 0)
(-0.199944 -0.0568483 0)
(-0.198578 -0.0840073 0)
(-0.196078 -0.110773 0)
(-0.192277 -0.136809 0)
(-0.186981 -0.161696 0)
(-0.179989 -0.184918 0)
(-0.171103 -0.20584 0)
(-0.160162 -0.223712 0)
(-0.147069 -0.237661 0)
(-0.131835 -0.246708 0)
(-0.114623 -0.249802 0)
(-0.0957936 -0.245865 0)
(-0.075949 -0.233873 0)
(-0.0559584 -0.212945 0)
(-0.0369364 -0.182456 0)
(-0.0201948 -0.142138 0)
(-0.00750365 -0.0921643 0)
(-0.00121906 -0.0332628 0)
(-0.00112784 0.0346569 0)
(-0.00686388 0.0948021 0)
(-0.0183354 0.14489 0)
(-0.0333159 0.184675 0)
(-0.0501722 0.214447 0)
(-0.067749 0.234863 0)
(-0.0851092 0.246822 0)
(-0.101556 0.251348 0)
(-0.116635 0.249497 0)
(-0.130095 0.242284 0)
(-0.141843 0.230642 0)
(-0.151906 0.215393 0)
(-0.16039 0.197242 0)
(-0.167447 0.176775 0)
(-0.173254 0.154471 0)
(-0.177989 0.13071 0)
(-0.181819 0.105795 0)
(-0.184889 0.0799593 0)
(-0.187311 0.0533893 0)
(-0.189162 0.0262355 0)
(-0.190475 -0.00136949 0)
(-0.191241 -0.0292956 0)
(-0.191401 -0.0573982 0)
(-0.190849 -0.0855004 0)
(-0.189431 -0.113374 0)
(-0.186947 -0.140719 0)
(-0.183157 -0.16714 0)
(-0.177795 -0.19213 0)
(-0.170586 -0.215042 0)
(-0.161271 -0.235079 0)
(-0.149646 -0.251286 0)
(-0.135609 -0.262553 0)
(-0.119215 -0.267643 0)
(-0.100741 -0.265245 0)
(-0.0807469 -0.254057 0)
(-0.0601226 -0.2329 0)
(-0.0400825 -0.200862 0)
(-0.0221205 -0.157441 0)
(-0.00829916 -0.102671 0)
(-0.00136815 -0.0372791 0)
(-0.00125974 0.0383241 0)
(-0.00755713 0.104305 0)
(-0.0199815 0.15859 0)
(-0.0359328 0.200977 0)
(-0.0535093 0.23195 0)
(-0.0714002 0.252432 0)
(-0.0885956 0.26361 0)
(-0.104396 0.266788 0)
(-0.118395 0.26326 0)
(-0.130425 0.254238 0)
(-0.140492 0.240797 0)
(-0.148724 0.223859 0)
(-0.155321 0.204191 0)
(-0.160525 0.182409 0)
(-0.164586 0.159001 0)
(-0.167745 0.134337 0)
(-0.17022 0.108697 0)
(-0.172198 0.0822845 0)
(-0.173824 0.0552461 0)
(-0.175198 0.0276899 0)
(-0.176374 -0.000298463 0)
(-0.177352 -0.028639 0)
(-0.178078 -0.0572393 0)
(-0.178441 -0.0859759 0)
(-0.178271 -0.114673 0)
(-0.177342 -0.14308 0)
(-0.17537 -0.170845 0)
(-0.172027 -0.197484 0)
(-0.166953 -0.22236 0)
(-0.159783 -0.244647 0)
(-0.150188 -0.263319 0)
(-0.137923 -0.277137 0)
(-0.122901 -0.284669 0)
(-0.10527 -0.284336 0)
(-0.0855062 -0.274504 0)
(-0.0644885 -0.253618 0)
(-0.043518 -0.220383 0)
(-0.0242896 -0.173965 0)
(-0.00921899 -0.114184 0)
(-0.00154575 -0.0417376 0)
(-0.00142669 0.0423867 0)
(-0.00840706 0.114691 0)
(-0.0219435 0.173311 0)
(-0.03895 0.218134 0)
(-0.0571899 0.249919 0)
(-0.0751805 0.269956 0)
(-0.0918525 0.279814 0)
(-0.106535 0.281141 0)
(-0.118913 0.275519 0)
(-0.128938 0.264373 0)
(-0.136748 0.248933 0)
(-0.142596 0.230215 0)
(-0.146797 0.209037 0)
(-0.149688 0.186034 0)
(-0.151599 0.161686 0)
(-0.152836 0.136341 0)
(-0.153666 0.110245 0)
(-0.154316 0.0835606 0)
(-0.15496 0.0563877 0)
(-0.155724 0.0287845 0)
(-0.156678 0.000783418 0)
(-0.157836 -0.0275919 0)
(-0.159151 -0.0563085 0)
(-0.160513 -0.0853052 0)
(-0.161745 -0.11447 0)
(-0.1626 -0.143617 0)
(-0.162758 -0.172451 0)
(-0.161834 -0.200542 0)
(-0.159387 -0.227279 0)
(-0.154941 -0.251838 0)
(-0.148022 -0.27314 0)
(-0.138218 -0.289835 0)
(-0.125255 -0.300293 0)
(-0.1091 -0.302641 0)
(-0.0900863 -0.294851 0)
(-0.069028 -0.274898 0)
(-0.0472839 -0.240979 0)
(-0.0267609 -0.191796 0)
(-0.0103007 -0.126835 0)
(-0.00176193 -0.0467132 0)
(-0.0016446 0.046942 0)
(-0.00947538 0.126136 0)
(-0.0243281 0.189191 0)
(-0.0424735 0.236148 0)
(-0.0612607 0.268185 0)
(-0.079027 0.287099 0)
(-0.0946777 0.294959 0)
(-0.107625 0.293838 0)
(-0.117698 0.285652 0)
(-0.125022 0.272062 0)
(-0.129903 0.254445 0)
(-0.132746 0.233899 0)
(-0.133994 0.211275 0)
(-0.134087 0.187205 0)
(-0.133435 0.162144 0)
(-0.132402 0.136401 0)
(-0.131303 0.110174 0)
(-0.130394 0.0835762 0)
(-0.129877 0.0566529 0)
(-0.129897 0.029407 0)
(-0.13054 0.00181311 0)
(-0.131834 -0.0261656 0)
(-0.133744 -0.0545606 0)
(-0.136167 -0.0833794 0)
(-0.138926 -0.112584 0)
(-0.141767 -0.142064 0)
(-0.144347 -0.171605 0)
(-0.146236 -0.200848 0)
(-0.146922 -0.229245 0)
(-0.145817 -0.256003 0)
(-0.142299 -0.280032 0)
(-0.135761 -0.299895 0)
(-0.125697 -0.313779 0)
(-0.11183 -0.319502 0)
(-0.0942676 -0.314588 0)
(-0.0736805 -0.29643 0)
(-0.0514253 -0.26256 0)
(-0.0296148 -0.211019 0)
(-0.0115993 -0.140787 0)
(-0.0020322 -0.0523059 0)
(-0.00193859 0.0521286 0)
(-0.0108527 0.138879 0)
(-0.0272785 0.206386 0)
(-0.0466251 0.254981 0)
(-0.0657366 0.286474 0)
(-0.082787 0.303375 0)
(-0.0967232 0.3084 0)
(-0.107123 0.304147 0)
(-0.114043 0.292901 0)
(-0.117837 0.276564 0)
(-0.119025 0.256644 0)
(-0.118186 0.234297 0)
(-0.115902 0.210371 0)
(-0.112711 0.185469 0)
(-0.109097 0.159996 0)
(-0.105474 0.134206 0)
(-0.102187 0.108235 0)
(-0.0995167 0.0821333 0)
(-0.0976803 0.0558898 0)
(-0.0968352 0.0294473 0)
(-0.0970808 0.0027211 0)
(-0.0984579 -0.0243871 0)
(-0.100946 -0.0519745 0)
(-0.104457 -0.0801205 0)
(-0.108827 -0.108867 0)
(-0.113809 -0.138191 0)
(-0.119057 -0.167975 0)
(-0.124116 -0.197959 0)
(-0.12842 -0.227688 0)
(-0.131289 -0.256448 0)
(-0.131951 -0.283183 0)
(-0.12959 -0.306424 0)
(-0.123431 -0.32421 0)
(-0.112875 -0.334062 0)
(-0.0977029 -0.333009 0)
(-0.0783224 -0.317748 0)
(-0.0559831 -0.284943 0)
(-0.0329595 -0.231713 0)