/*--------------------------------*- C++ -*----------------------------------*\
| =========                 |                                                 |
| \\      /  F ield         | OpenFOAM: The Open Source CFD Toolbox           |
|  \\    /   O peration     | Version:  2206                                  |
|   \\  /    A nd           | Website:  www.openfoam.com                      |
|    \\/     M anipulation  |                                                 |
\*---------------------------------------------------------------------------*/
FoamFile
{
    version     2.0;
    format      ascii;
    arch        "LSB;label=32;scalar=64";
    class       volScalarField;
    location    "0.2";
    object      p;
}
// * * * * * * * * * * * * * * * * * * * * * * * * * * * * * * * * * * * * * //

dimensions      [0 2 -2 0 0 0 0];

internalField   nonuniform List<scalar> 
1600
(
2.11088e-08
-0.00119229
-0.00392112
-0.00759237
-0.0115344
-0.0152516
-0.0183864
-0.0206867
-0.021985
-0.0221818
-0.0212313
-0.0191316
-0.0159162
-0.0116478
-0.00641392
-0.000322067
0.00650285
0.0139214
0.0217823
0.0299246
0.0381802
0.0463765
0.0543393
0.0618956
0.068878
0.075128
0.080501
0.084871
0.0881366
0.0902262
0.0911051
0.0907819
0.0893169
0.0868311
0.0835177
0.0796555
0.0756247
0.0719336
0.0692503
0.0681334
0.00118989
-2.30943e-06
-0.00221773
-0.00506745
-0.00810822
-0.0109748
-0.0133829
-0.0151196
-0.0160347
-0.0160325
-0.0150629
-0.0131145
-0.0102079
-0.00639138
-0.00173599
0.00366761
0.0097123
0.0162771
0.0232296
0.0304284
0.0377257
0.0449694
0.0520066
0.058686
0.0648617
0.0703971
0.0751688
0.0790711
0.0820212
0.0839641
0.0848777
0.0847791
0.08373
0.0818435
0.0792899
0.0763033
0.0731852
0.0703114
0.06813
0.0670186
0.00393177
0.0022045
-4.11304e-05
-0.00259882
-0.00522559
-0.00765174
-0.00965376
-0.0110601
-0.0117453
-0.0116257
-0.0106553
-0.00882091
-0.00613778
-0.00264569
0.0015945
0.00650387
0.011988
0.0179394
0.0242397
0.0307623
0.0373742
0.0439387
0.0503182
0.0563769
0.0619842
0.0670181
0.0713692
0.0749447
0.077673
0.0795074
0.0804315
0.0804628
0.0796577
0.0781151
0.0759791
0.0734403
0.0707386
0.0681558
0.0659503
0.0643329
0.00769245
0.00508295
0.00244325
-0.000183907
-0.00273691
-0.00501606
-0.00684723
-0.00809873
-0.00867226
-0.00850117
-0.00754877
-0.00580566
-0.00328664
-2.78689e-05
0.00391568
0.00847267
0.0135576
0.0190726
0.0249101
0.030954
0.0370825
0.0431702
0.0490904
0.054718
0.0599328
0.0646224
0.0686859
0.0720377
0.0746113
0.0763633
0.0772766
0.0773645
0.0766735
0.0752852
0.0733164
0.0709191
0.0682854
0.0656302
0.0630406
0.0605736
0.0118775
0.00824104
0.00503403
0.00215546
-0.000499963
-0.00278858
-0.00457788
-0.00577333
-0.00630374
-0.0061209
-0.00519986
-0.00353758
-0.00115117
0.00192416
0.0056369
0.00992101
0.0146976
0.0198766
0.0253585
0.0310363
0.0367968
0.0425236
0.0480983
0.0534041
0.0583282
0.0627645
0.0666176
0.0698058
0.0722644
0.0739497
0.0748411
0.0749447
0.074295
0.0729555
0.0710171
0.0685964
0.065847
0.062932
0.0597804
0.0563135
0.0160611
0.0113549
0.00748795
0.00424028
0.00136025
-0.0010514
-0.00289573
-0.00411079
-0.00465087
-0.00448593
-0.00360365
-0.00200901
0.000276804
0.00321758
0.00676319
0.0108509
0.0154064
0.0203455
0.0255751
0.0309945
0.0364977
0.0419745
0.047313
0.0524019
0.0571331
0.0614043
0.0651227
0.0682073
0.0705929
0.0722322
0.0730993
0.073191
0.0725289
0.0711589
0.0691481
0.0665834
0.0635885
0.0602884
0.056475
0.0519577
0.0199344
0.0141634
0.00959002
0.00589729
0.00270802
9.1464e-05
-0.00187941
-0.00317028
-0.00375819
-0.00363029
-0.00278694
-0.00124186
0.000978431
0.0038352
0.00727807
0.0112458
0.0156673
0.0204618
0.0255409
0.0308088
0.036164
0.0415009
0.0467116
0.0516881
0.0563244
0.0605199
0.0641811
0.0672259
0.0695853
0.0712071
0.0720574
0.072123
0.0714121
0.069954
0.0677953
0.0649982
0.0616651
0.0578955
0.0533647
0.0477928
0.0232649
0.016453
0.0111554
0.00697405
0.00342291
0.000548702
-0.00159522
-0.0029978
-0.00365584
-0.0035723
-0.0027598
-0.00124099
0.000951564
0.00377557
0.00717917
0.0111013
0.0154722
0.0202137
0.0252399
0.0304582
0.0357701
0.0410727
0.04626
0.0512251
0.0558627
0.0600706
0.0637534
0.0668248
0.0692107
0.0708513
0.0717039
0.0717439
0.0709666
0.0693857
0.06703
0.0639423
0.0602105
0.0559182
0.0506412
0.0440267
0.0258705
0.0180447
0.0120197
0.00732731
0.00338459
0.000222215
-0.0021211
-0.0036538
-0.00438995
-0.00434684
-0.0035486
-0.00202678
0.000179639
0.00302408
0.00645229
0.0104023
0.0148045
0.0195817
0.0246497
0.0299174
0.0352878
0.0406588
0.045925
0.050979
0.0557134
0.0600235
0.0638094
0.066979
0.0694508
0.0711562
0.0720419
0.0720717
0.0712276
0.0695091
0.0669295
0.063516
0.0593477
0.0544996
0.0484602
0.0408147
0.0276011
0.0187831
0.0120334
0.00682012
0.00247155
-0.000993132
-0.00354642
-0.00521321
-0.0060229
-0.00600578
-0.0051968
-0.00363622
-0.00136966
0.00155154
0.00506999
0.00912199
0.0136372
0.0185385
0.0237418
0.0291567
0.0346861
0.040228
0.0456754
0.0509191
0.0558484
0.0603538
0.0643293
0.0676753
0.0703011
0.0721276
0.07309
0.0731393
0.072244
0.0703903
0.0675776
0.0638207
0.0591937
0.0537688
0.0469542
0.0382796
0.0283238
0.0185267
0.0110559
0.00531945
0.000561428
-0.00320753
-0.00596867
-0.00776137
-0.00862886
-0.00861345
-0.00776043
-0.00611861
-0.00374043
-0.000682325
0.00299471
0.00722455
0.0119354
0.0170493
0.0224818
0.0281416
0.0339312
0.0397468
0.0454795
0.0510164
0.0562422
0.0610411
0.0652995
0.0689083
0.0717662
0.0737819
0.0748775
0.0749902
0.0740747
0.0721037
0.0690641
0.0649599
0.0598632
0.0538467
0.0462424
0.0365274
0.0279133
0.0171405
0.00895056
0.0026928
-0.00247079
-0.00653657
-0.00949301
-0.0113928
-0.0122922
-0.0122449
-0.0113064
-0.00953393
-0.00698697
-0.00372732
0.000180017
0.00466605
0.00965697
0.0150734
0.0208296
0.0268334
0.0329854
0.0391799
0.0453044
0.0512419
0.0568708
0.0620681
0.0667107
0.0706786
0.0738579
0.0761436
0.0774429
0.0776778
0.0767882
0.074733
0.0714862
0.0670423
0.0614731
0.0548539
0.0464409
0.0356589
0.026244
0.0144894
0.00557949
-0.00119527
-0.00675504
-0.0111025
-0.0142326
-0.0162111
-0.0171069
-0.0169851
-0.0159113
-0.0139516
-0.0111725
-0.00764158
-0.00342818
0.00139552
0.00675335
0.0125641
0.0187407
0.0251891
0.0318082
0.0384892
0.045116
0.0515661
0.0577113
0.0634195
0.0685571
0.0729915
0.0765943
0.0792448
0.0808334
0.0812651
0.0804633
0.0783715
0.0749507
0.0701851
0.0641472
0.0569162
0.0476699
0.0357796
0.0231852
0.0104336
0.0007996
-0.00648641
-0.0124285
-0.0170355
-0.0203094
-0.0223288
-0.0231759
-0.0229277
-0.0216602
-0.0194489
-0.0163676
-0.0124901
-0.00789023
-0.00264368
0.00317088
0.00947037
0.016166
0.0231622
0.0303555
0.0376342
0.0448781
0.0519588
0.0587403
0.0650809
0.0708349
0.0758555
0.0799981
0.0831239
0.0851042
0.0858244
0.0851891
0.0831245
0.0795762
0.0745177
0.0680215
0.0601709
0.0500609
0.0370062
0.0185964
0.00482414
-0.00554143
-0.0133317
-0.0196378
-0.0244757
-0.0278546
-0.0298677
-0.030611
-0.0301744
-0.0286456
-0.0261096
-0.0226487
-0.0183429
-0.013271
-0.00751213
-0.0011476
0.00573779
0.0130538
0.0207033
0.0285811
0.0365724
0.0445528
0.0523879
0.0599337
0.0670379
0.0735416
0.0792821
0.0840965
0.0878255
0.0903183
0.091438
0.0910666
0.0891102
0.0854964
0.0801852
0.0732483
0.0647723
0.0537627
0.0394736
0.0123239
-0.00250099
-0.0136087
-0.0218949
-0.028542
-0.0335744
-0.0370102
-0.0389587
-0.0395318
-0.0388338
-0.0369652
-0.0340221
-0.0300956
-0.0252726
-0.0196372
-0.013272
-0.00626051
0.00131091
0.00935115
0.0177622
0.0264374
0.0352597
0.0441008
0.0528206
0.0612668
0.069276
0.0766753
0.0832844
0.08892
0.0933995
0.0965468
0.0981983
0.0982099
0.0964628
0.092863
0.0873531
0.080002
0.070898
0.0589482
0.0433408
0.00419797
-0.0117204
-0.023584
-0.0323555
-0.0393147
-0.0444962
-0.0479295
-0.0497425
-0.0500656
-0.0490199
-0.0467208
-0.0432768
-0.0387889
-0.0333518
-0.0270547
-0.0199838
-0.0122246
-0.00386408
0.00500661
0.0142895
0.0238774
0.0336522
0.0434826
0.0532232
0.062714
0.0717804
0.0802344
0.0878772
0.0945026
0.0999015
0.103869
0.106209
0.106748
0.105335
0.10185
0.096212
0.0884844
0.0787546
0.0658202
0.0487978
-0.00597146
-0.0230337
-0.0356699
-0.0449131
-0.0521477
-0.0574215
-0.0607785
-0.0623691
-0.0623461
-0.0608505
-0.0580152
-0.0539629
-0.0488065
-0.0426486
-0.0355844
-0.0277031
-0.0190912
-0.00983571
-2.65095e-05
0.0102399
0.0208576
0.0317086
0.0426601
0.053563
0.0642502
0.0745361
0.0842178
0.0930764
0.100881
0.107392
0.112371
0.115587
0.116826
0.115901
0.112656
0.106982
0.0989308
0.0885848
0.0746188
0.0560714
-0.018398
-0.0366661
-0.0500946
-0.0597912
-0.0672541
-0.0725482
-0.0757367
-0.076998
-0.0765121
-0.0744444
-0.0709486
-0.0661649
-0.0602189
-0.0532228
-0.0452773
-0.0364745
-0.0269013
-0.0166426
-0.00578577
0.0055763
0.017341
0.0293926
0.0415992
0.0538096
0.0658512
0.0775288
0.0886245
0.0988986
0.108093
0.115936
0.12215
0.126461
0.128607
0.128358
0.125511
0.11992
0.111617
0.100675
0.0856296
0.065433
-0.0333244
-0.0528747
-0.0671188
-0.0772435
-0.0848729
-0.0900949
-0.0929985
-0.0937973
-0.0927054
-0.0899183
-0.0856152
-0.0799567
-0.0730838
-0.0651189
-0.0561685
-0.0463268
-0.0356793
-0.0243079
-0.0122943
0.00027438
0.0133017
0.0266773
0.0402726
0.0539375
0.0674962
0.0807458
0.0934544
0.105362
0.116181
0.125604
0.13331
0.138972
0.142276
0.142931
0.14068
0.135324
0.126868
0.115365
0.0991932
0.0772085
-0.051029
-0.0719571
-0.0870437
-0.097561
-0.105275
-0.110305
-0.112774
-0.112943
-0.111068
-0.107382
-0.102096
-0.0953956
-0.0874388
-0.0783594
-0.0682696
-0.0572645
-0.0454268
-0.0328321
-0.0195544
-0.00567134
0.00873028
0.0235491
0.038664
0.0539292
0.0691697
0.0841774
0.0987089
0.112484
0.125187
0.13647
0.145962
0.153279
0.158039
0.159879
0.158469
0.153546
0.145069
0.133062
0.115718
0.0917891
-0.0718358
-0.0942628
-0.110223
-0.121082
-0.128769
-0.133448
-0.135291
-0.134616
-0.131736
-0.126932
-0.120453
-0.112514
-0.103293
-0.0929355
-0.08156
-0.0692601
-0.0561133
-0.042186
-0.0275404
-0.0122409
0.00363973
0.0200138
0.0367724
0.053779
0.070864
0.0878187
0.104391
0.120284
0.135153
0.148609
0.160226
0.169551
0.176123
0.179491
0.179233
0.174996
0.166676
0.15425
0.135696
0.109646
-0.0961285
-0.12021
-0.137077
-0.148203
-0.155711
-0.159827
-0.160791
-0.158999
-0.154837
-0.148644
-0.140718
-0.131307
-0.120614
-0.108797
-0.0959765
-0.082244
-0.0676679
-0.0523015
-0.0361907
-0.0193818
-0.00192819
0.0161016
0.0346168
0.0534965
0.0725821
0.0916706
0.110508
0.128782
0.146122
0.162098
0.176224
0.187971
0.196782
0.202099
0.203381
0.200157
0.192235
0.179516
0.159722
0.131349
-0.12437
-0.150307
-0.168119
-0.1794
-0.186517
-0.189783
-0.189535
-0.186273
-0.180476
-0.172561
-0.16288
-0.151725
-0.139321
-0.125839
-0.111402
-0.0960938
-0.079969
-0.0630629
-0.0453998
-0.0270017
-0.00789652
0.011873
0.0322411
0.0531099
0.0743399
0.0957414
0.117065
0.137991
0.158129
0.177008
0.194079
0.208729
0.22029
0.228072
0.231384
0.229601
0.222399
0.209573
0.188526
0.157593
-0.157133
-0.185189
-0.203978
-0.215249
-0.221673
-0.223698
-0.221794
-0.216605
-0.208728
-0.198676
-0.186871
-0.173649
-0.159262
-0.143891
-0.127654
-0.110624
-0.0928352
-0.0742991
-0.0550111
-0.0349621
-0.0141477
0.00742295
0.0297173
0.0526691
0.0761676
0.100046
0.12407
0.147924
0.171202
0.193399
0.213906
0.232017
0.246938
0.257821
0.263786
0.264001
0.257961
0.245294
0.223006
0.189235
-0.195142
-0.225663
-0.245452
-0.256456
-0.261756
-0.261999
-0.257848
-0.250135
-0.239616
-0.226918
-0.212545
-0.196882
-0.180204
-0.162697
-0.14447
-0.125574
-0.106017
-0.0857761
-0.0648112
-0.0430745
-0.0205204
0.00288358
0.0271471
0.0522457
0.0781085
0.104604
0.131526
0.158576
0.185347
0.21131
0.2358
0.258017
0.277028
0.291796
0.301205
0.304153
0.299879
0.287762
0.264287
0.227341
-0.239343
-0.272785
-0.293561
-0.3039
-0.307451
-0.30516
-0.297965
-0.286955
-0.273083
-0.257118
-0.239652
-0.221119
-0.201811
-0.181909
-0.1615
-0.140604
-0.11919
-0.0971937
-0.0745283
-0.0510984
-0.026809
-0.00157667
0.0246604
0.0519307
0.0802155
0.109434
0.139424
0.169922
0.200539
0.23074
0.259817
0.286881
0.31085
0.330472
0.344339
0.350999
0.349327
0.338333
0.3138
0.273266
-0.291004
-0.327964
-0.349639
-0.358682
-0.359567
-0.35369
-0.342384
-0.327073
-0.308962
-0.288979
-0.26781
-0.245926
-0.223626
-0.201064
-0.178293
-0.155284
-0.131955
-0.108186
-0.083834
-0.0587462
-0.0327692
-0.00575888
0.0224087
0.0518266
0.0825425
0.114542
0.147729
0.181896
0.2167
0.251624
0.285945
0.318698
0.348657
0.374329
0.393959
0.405641
0.407747
0.398734
0.373397
0.328764
-0.351884
-0.393135
-0.415457
-0.422197
-0.419055
-0.408116
-0.391263
-0.370364
-0.346919
-0.322031
-0.296466
-0.270716
-0.245051
-0.219582
-0.194297
-0.169101
-0.143841
-0.118329
-0.0923532
-0.0656936
-0.0381289
-0.00944581
0.0205522
0.0520343
0.0851292
0.119908
0.156362
0.194371
0.233669
0.273799
0.314059
0.353446
0.39061
0.423809
0.450885
0.46936
0.476917
0.471187
0.44553
0.396167
-0.424505
-0.471015
-0.493398
-0.496198
-0.486998
-0.468922
-0.44461
-0.416486
-0.386384
-0.355571
-0.324859
-0.294713
-0.265338
-0.236757
-0.208861
-0.181463
-0.15432
-0.127156
-0.0996815
-0.0715981
-0.0426084
-0.0124215
0.01924
0.0526327
0.0879805
0.125459
0.165172
0.207122
0.251164
0.296951
0.343863
0.390921
0.436701
0.479236
0.515931
0.543607
0.559024
0.558593
0.533529
0.478687
-0.512635
-0.56552
-0.586699
-0.582875
-0.564571
-0.536448
-0.502154
-0.464768
-0.426458
-0.388596
-0.351968
-0.316937
-0.283575
-0.25176
-0.221247
-0.191722
-0.162826
-0.134184
-0.105412
-0.0761267
-0.0459469
-0.0144987
0.0185832
0.0536513
0.0910375
0.13104
0.173905
0.219791
0.268729
0.32055
0.374802
0.430628
0.486628
0.540688
0.589789
0.629949
0.65673
0.66478
0.642032
0.580923
-0.622145
-0.682419
-0.699763
-0.684879
-0.652902
-0.610692
-0.563149
-0.514042
-0.465786
-0.419723
-0.376475
-0.336185
-0.298693
-0.263663
-0.230659
-0.199203
-0.168798
-0.13895
-0.109173
-0.0789914
-0.0479379
-0.0155523
0.0186217
0.0550379
0.0941455
0.136382
0.182159
0.231836
0.285675
0.343772
0.405955
0.471635
0.539605
0.607775
0.672818
0.729926
0.773201
0.794815
0.777671
0.70979
-0.762653
-0.830391
-0.838528
-0.80524
-0.752781
-0.690967
-0.626075
-0.562423
-0.502416
-0.447109
-0.396732
-0.351032
-0.309493
-0.271472
-0.236287
-0.203255
-0.17172
-0.141056
-0.110669
-0.0799905
-0.0484676
-0.0155561
0.0192899
0.0566253
0.0970206
0.141063
0.189352
0.242483
0.301014
0.365402
0.435899
0.512385
0.594108
0.679314
0.764673
0.844728
0.911997
0.955375
0.950165
0.876279
-0.950848
-1.0227
-1.01073
-0.946934
-0.864018
-0.775303
-0.688176
-0.606996
-0.533625
-0.468376
-0.41075
-0.359865
-0.314693
-0.274191
-0.237367
-0.203307
-0.171178
-0.140219
-0.109729
-0.0790499
-0.0475525
-0.0146161
0.0203861
0.0581036
0.0992236
0.144485
0.194686
0.250689
0.313403
0.383746
0.46256
0.550449
0.647497
0.752795
0.863629
0.974482
1.07659
1.15498
1.17405
1.09902
-1.21724
-1.27966
-1.22549
-1.11151
-0.984031
-0.859329
-0.744713
-0.64339
-0.555704
-0.480534
-0.416205
-0.360926
-0.312995
-0.270882
-0.233247
-0.198927
-0.166913
-0.136316
-0.106341
-0.0762551
-0.0453666
-0.0129947
0.0215521
0.0590018
0.100144
0.145857
0.197135
0.255115
0.321095
0.396539
0.483042
0.582225
0.695495
0.823543
0.965355
1.1167
1.26884
1.4035
1.47114
1.41134
-1.6178
-1.63093
-1.49151
-1.29668
-1.10585
-0.934963
-0.788273
-0.665509
-0.563948
-0.480107
-0.41061
-0.352486
-0.303238
-0.260803
-0.22349
-0.189903
-0.15888
-0.129429
-0.100686
-0.0718702
-0.0422496
-0.0111081
0.0222862
0.0587135
0.0990379
0.144248
0.195507
0.254204
0.322025
0.401016
0.493649
0.602836
0.731846
0.883959
1.06153
1.26421
1.4865
1.7101
1.87241
1.8729
-2.25453
-2.11585
-1.81353
-1.49436
-1.21738
-0.990474
-0.809378
-0.666418
-0.553593
-0.463983
-0.392039
-0.333444
-0.284876
-0.243779
-0.208163
-0.176459
-0.147403
-0.119948
-0.0931989
-0.0663595
-0.0386912
-0.00947272
0.0220355
0.0566306
0.0952103
0.138827
0.188753
0.246571
0.314291
0.394499
0.490559
0.606845
0.748975
0.923926
1.13976
1.40418
1.7209
2.07934
2.41785
2.58926
-3.35542
-2.78357
-2.17259
-1.67567
-1.29249
-1.00567
-0.794097
-0.637229
-0.519291
-0.42914
-0.358943
-0.303155
-0.257812
-0.220034
-0.187678
-0.159113
-0.133056
-0.108471
-0.0844836
-0.0603272
-0.0352934
-0.00869239
0.0201851
0.0521093
0.0879584
0.128779
0.175867
0.23088
0.295998
0.374166
0.469444
0.587531
0.736505
0.927861
1.17793
1.50828
1.94083
2.49098
3.1584
3.79397
-5.51665
-3.66382
-2.43111
-1.71377
-1.24156
-0.921665
-0.704746
-0.553873
-0.445418
-0.36515
-0.304139
-0.256531
-0.218368
-0.18689
-0.1601
-0.13651
-0.114963
-0.094535
-0.0744503
-0.0540311
-0.0326528
-0.00970771
0.0154303
0.0434428
0.0751106
0.111371
0.153397
0.20271
0.261355
0.332171
0.41924
0.528623
0.669606
0.856972
1.11528
1.48371
2.01562
2.80561
4.12657
6.08718
-9.19967
-4.52199
-2.30658
-1.42104
-0.958952
-0.682953
-0.512279
-0.400594
-0.32292
-0.266416
-0.223889
-0.190908
-0.164564
-0.142846
-0.1243
-0.107826
-0.0925657
-0.0778202
-0.0629997
-0.0475829
-0.031087
-0.0130411
0.00703979
0.0296814
0.0554824
0.0851559
0.119586
0.159911
0.207652
0.264919
0.334773
0.421881
0.533791
0.683792
0.897515
1.22415
1.75383
2.73368
5.06388
9.8619
)
;

boundaryField
{
    movingWall
    {
        type            zeroGradient;
    }
    fixedWalls
    {
        type            zeroGradient;
    }
    frontAndBack
    {
        type            empty;
    }
}


// ************************************************************************* //
