/*--------------------------------*- C++ -*----------------------------------*\
| =========                 |                                                 |
| \\      /  F ield         | OpenFOAM: The Open Source CFD Toolbox           |
|  \\    /   O peration     | Version:  2206                                  |
|   \\  /    A nd           | Website:  www.openfoam.com                      |
|    \\/     M anipulation  |                                                 |
\*---------------------------------------------------------------------------*/
FoamFile
{
    version     2.0;
    format      ascii;
    arch        "LSB;label=32;scalar=64";
    class       surfaceScalarField;
    location    "0.2";
    object      phi;
}
// * * * * * * * * * * * * * * * * * * * * * * * * * * * * * * * * * * * * * //

dimensions      [0 3 -1 0 0 0 0];

oriented        oriented;

internalField   nonuniform List<scalar> 
3120
(
2.53954e-09
-2.53955e-09
4.09384e-09
-1.55439e-09
2.24716e-09
1.84672e-09
-3.56155e-09
5.80872e-09
-1.31431e-08
9.58147e-09
-2.59889e-08
1.28459e-08
-4.146e-08
1.54712e-08
-5.88805e-08
1.74205e-08
-7.75829e-08
1.87025e-08
-9.69309e-08
1.9348e-08
-1.1633e-07
1.93994e-08
-1.35235e-07
1.89051e-08
-1.53152e-07
1.79162e-08
-1.69637e-07
1.64852e-08
-1.84302e-07
1.46655e-08
-1.96813e-07
1.25108e-08
-2.06888e-07
1.00754e-08
-2.14303e-07
7.41427e-09
-2.18886e-07
4.58363e-09
-2.20527e-07
1.64132e-09
-2.19175e-07
-1.35279e-09
-2.14838e-07
-4.33662e-09
-2.07592e-07
-7.2458e-09
-1.97578e-07
-1.00137e-08
-1.85007e-07
-1.2572e-08
-1.70155e-07
-1.48512e-08
-1.53374e-07
-1.67817e-08
-1.35078e-07
-1.82952e-08
-1.15752e-07
-1.93262e-08
-9.59387e-08
-1.98135e-08
-7.62358e-08
-1.9703e-08
-5.72859e-08
-1.89499e-08
-3.97634e-08
-1.75226e-08
-2.43554e-08
-1.54079e-08
-1.1734e-08
-1.26214e-08
-2.50455e-09
-9.22934e-09
2.8891e-09
-5.39362e-09
4.35199e-09
-1.46289e-09
2.55875e-09
1.79328e-09
2.55882e-09
1.61525e-09
-4.15462e-09
-1.17567e-09
1.2364e-09
-1.17212e-08
1.23923e-08
-3.10773e-08
2.51648e-08
-5.90427e-08
3.75468e-08
-9.46741e-08
4.84773e-08
-1.36623e-07
5.74202e-08
-1.83351e-07
6.41482e-08
-2.33258e-07
6.86101e-08
-2.84765e-07
7.0855e-08
-3.36358e-07
7.09924e-08
-3.86621e-07
6.91675e-08
-4.34252e-07
6.55473e-08
-4.78079e-07
6.03119e-08
-5.17063e-07
5.36499e-08
-5.50308e-07
4.57554e-08
-5.7706e-07
3.68277e-08
-5.96716e-07
2.70708e-08
-6.08827e-07
1.6694e-08
-6.13099e-07
5.91328e-09
-6.09403e-07
-5.0487e-09
-5.97777e-07
-1.59617e-08
-5.78435e-07
-2.65883e-08
-5.51764e-07
-3.66842e-08
-5.18335e-07
-4.6001e-08
-4.78898e-07
-5.42882e-08
-4.34383e-07
-6.12975e-08
-3.8589e-07
-6.67879e-08
-3.34684e-07
-7.0532e-08
-2.82173e-07
-7.2324e-08
-2.29888e-07
-7.19885e-08
-1.79445e-07
-6.9393e-08
-1.32504e-07
-6.44633e-08
-9.07048e-08
-5.72072e-08
-5.55737e-08
-4.77526e-08
-2.8387e-08
-3.6416e-08
-9.95522e-09
-2.38254e-08
-2.96824e-10
-1.11213e-08
1.85089e-09
-3.54347e-10
4.4097e-09
-1.66826e-09
-2.48635e-09
-1.21173e-08
1.16852e-08
-3.40859e-08
3.4361e-08
-6.84359e-08
5.95149e-08
-1.14754e-07
8.38645e-08
-1.71754e-07
1.05478e-07
-2.37604e-07
1.2327e-07
-3.10169e-07
1.36713e-07
-3.8718e-07
1.45621e-07
-4.66354e-07
1.50029e-07
-5.45472e-07
1.50111e-07
-6.22434e-07
1.46129e-07
-6.95293e-07
1.38407e-07
-7.62284e-07
1.27302e-07
-8.21836e-07
1.13202e-07
-8.72589e-07
9.65085e-08
-9.13401e-07
7.76401e-08
-9.43358e-07
5.70273e-08
-9.61778e-07
3.51141e-08
-9.68223e-07
1.23584e-08
-9.62504e-07
-1.07677e-08
-9.44689e-07
-3.3777e-08
-9.15108e-07
-5.61688e-08
-8.74362e-07
-7.74308e-08
-8.23319e-07
-9.70435e-08
-7.63121e-07
-1.14487e-07
-6.9517e-07
-1.29248e-07
-6.21123e-07
-1.40835e-07
-5.42868e-07
-1.48787e-07
-4.62495e-07
-1.52697e-07
-3.82257e-07
-1.52226e-07
-3.04513e-07
-1.47137e-07
-2.31653e-07
-1.37323e-07
-1.66002e-07
-1.22859e-07
-1.09682e-07
-1.04073e-07
-6.4436e-08
-8.16622e-08
-3.13801e-08
-5.68813e-08
-1.0693e-08
-3.18084e-08
-1.23994e-09
-9.80743e-09
3.1697e-09
-5.56762e-09
3.08135e-09
-2.49708e-08
3.10884e-08
-5.96662e-08
6.90563e-08
-1.09829e-07
1.09678e-07
-1.7457e-07
1.48605e-07
-2.52181e-07
1.83089e-07
-3.40393e-07
2.11483e-07
-4.36589e-07
2.32909e-07
-5.37981e-07
2.47013e-07
-6.4174e-07
2.53789e-07
-7.45099e-07
2.53469e-07
-8.45417e-07
2.46448e-07
-9.40236e-07
2.33225e-07
-1.02731e-06
2.14379e-07
-1.10465e-06
1.90538e-07
-1.17051e-06
1.62367e-07
-1.22343e-06
1.30562e-07
-1.26224e-06
9.5844e-08
-1.28609e-06
5.89578e-08
-1.2944e-06
2.06719e-08
-1.28695e-06
-1.82209e-08
-1.26382e-06
-5.69043e-08
-1.22545e-06
-9.45409e-08
-1.1726e-06
-1.30277e-07
-1.1064e-06
-1.63249e-07
-1.02829e-06
-1.92596e-07
-9.40061e-07
-2.17476e-07
-8.43815e-07
-2.37081e-07
-7.41935e-07
-2.50667e-07
-6.37052e-07
-2.5758e-07
-5.31986e-07
-2.57293e-07
-4.29674e-07
-2.49449e-07
-3.33077e-07
-2.3392e-07
-2.45057e-07
-2.10879e-07
-1.68226e-07
-1.80903e-07
-1.04762e-07
-1.45127e-07
-5.61794e-08
-1.05463e-07
-2.30942e-08
-6.48937e-08
-4.98542e-09
-2.79162e-08
-1.81572e-09
-9.46454e-09
1.25459e-08
-3.81579e-08
5.97817e-08
-8.60394e-08
1.16938e-07
-1.52324e-07
1.75962e-07
-2.35442e-07
2.31723e-07
-3.33158e-07
2.80805e-07
-4.42734e-07
3.21059e-07
-5.61106e-07
3.51281e-07
-6.85038e-07
3.70944e-07
-8.11253e-07
3.80004e-07
-9.36538e-07
3.78754e-07
-1.05782e-06
3.67729e-07
-1.17223e-06
3.47633e-07
-1.27714e-06
3.1929e-07
-1.37021e-06
2.83607e-07
-1.4494e-06
2.41556e-07
-1.51299e-06
1.94158e-07
-1.55962e-06
1.42472e-07
-1.58826e-06
8.75983e-08
-1.59826e-06
3.0671e-08
-1.58934e-06
-2.71396e-08
-1.56162e-06
-8.46303e-08
-1.51559e-06
-1.40569e-07
-1.45216e-06
-1.937e-07
-1.37265e-06
-2.42759e-07
-1.27876e-06
-2.86489e-07
-1.17258e-06
-3.23661e-07
-1.05655e-06
-3.53106e-07
-9.33468e-07
-3.73749e-07
-8.06392e-07
-3.84656e-07
-6.78603e-07
-3.85082e-07
-5.53513e-07
-3.74539e-07
-4.34559e-07
-3.52874e-07
-3.25076e-07
-3.20361e-07
-2.28143e-07
-2.77836e-07
-1.46409e-07
-2.26861e-07
-8.19091e-08
-1.69963e-07
-3.58999e-08
-1.10903e-07
-8.75203e-09
-5.5064e-08
-1.05677e-08
-1.31554e-08
2.57013e-08
-5.10012e-08
9.76276e-08
-1.12037e-07
1.77974e-07
-1.94407e-07
2.58331e-07
-2.95736e-07
3.33053e-07
-4.13161e-07
3.9823e-07
-5.43424e-07
4.51322e-07
-6.83004e-07
4.9086e-07
-8.28242e-07
5.16183e-07
-9.75463e-07
5.27225e-07
-1.12107e-06
5.24363e-07
-1.26164e-06
5.08295e-07
-1.39395e-06
4.79949e-07
-1.51509e-06
4.40424e-07
-1.62242e-06
3.90939e-07
-1.71367e-06
3.32805e-07
-1.78692e-06
2.67404e-07
-1.84062e-06
1.96178e-07
-1.87364e-06
1.20621e-07
-1.88525e-06
4.22763e-08
-1.87512e-06
-3.72646e-08
-1.84339e-06
-1.16366e-07
-1.7906e-06
-1.93355e-07
-1.71777e-06
-2.66529e-07
-1.62636e-06
-3.34176e-07
-1.51825e-06
-3.94595e-07
-1.39579e-06
-4.46127e-07
-1.2617e-06
-4.87196e-07
-1.11909e-06
-5.16359e-07
-9.71378e-07
-5.32364e-07
-8.22241e-07
-5.34219e-07
-6.75501e-07
-5.21279e-07
-5.35033e-07
-4.93342e-07
-4.04628e-07
-4.50766e-07
-2.87854e-07
-3.94611e-07
-1.87894e-07
-3.26821e-07
-1.07409e-07
-2.50448e-07
-4.84285e-08
-1.69883e-07
-1.23295e-08
-9.11629e-08
-2.28972e-08
-1.66007e-08
4.23018e-08
-6.32758e-08
1.44303e-07
-1.372e-07
2.51898e-07
-2.3543e-07
3.56562e-07
-3.54726e-07
4.52349e-07
-4.91526e-07
5.3503e-07
-6.41998e-07
6.01795e-07
-8.02137e-07
6.50998e-07
-9.67859e-07
6.81905e-07
-1.13511e-06
6.94477e-07
-1.29996e-06
6.89208e-07
-1.45865e-06
6.66989e-07
-1.60771e-06
6.29004e-07
-1.74394e-06
5.76655e-07
-1.8645e-06
5.11501e-07
-1.96692e-06
4.35224e-07
-2.04911e-06
3.49599e-07
-2.10941e-06
2.56477e-07
-2.14657e-06
1.57781e-07
-2.15979e-06
5.54947e-08
-2.14872e-06
-4.83356e-08
-2.11347e-06
-1.51609e-07
-2.05465e-06
-2.52175e-07
-1.97333e-06
-3.47851e-07
-1.87107e-06
-4.36437e-07
-1.74991e-06
-5.15751e-07
-1.61238e-06
-5.83663e-07
-1.46142e-06
-6.38151e-07
-1.30042e-06
-6.77362e-07
-1.1331e-06
-6.99686e-07
-9.63473e-07
-7.03845e-07
-7.95756e-07
-6.88997e-07
-6.34248e-07
-6.5485e-07
-4.83215e-07
-6.01799e-07
-3.46751e-07
-5.31075e-07
-2.28642e-07
-4.44929e-07
-1.32257e-07
-3.46834e-07
-6.04688e-08
-2.41671e-07
-1.56797e-08
-1.35952e-07
-3.85769e-08
-1.98294e-08
6.21312e-08
-7.49864e-08
1.9946e-07
-1.61463e-07
3.38374e-07
-2.75267e-07
4.70366e-07
-4.12266e-07
5.89348e-07
-5.68157e-07
6.9092e-07
-7.38491e-07
7.72129e-07
-9.18745e-07
8.31252e-07
-1.1044e-06
8.6756e-07
-1.29103e-06
8.81106e-07
-1.47437e-06
8.7255e-07
-1.6504e-06
8.4302e-07
-1.81539e-06
7.93991e-07
-1.96594e-06
7.27201e-07
-2.09901e-06
6.44581e-07
-2.212e-06
5.48207e-07
-2.30267e-06
4.40274e-07
-2.36927e-06
3.23069e-07
-2.41045e-06
1.98963e-07
-2.42536e-06
7.0405e-08
-2.41361e-06
-6.00822e-08
-2.37531e-06
-1.89908e-07
-2.31107e-06
-3.16421e-07
-2.22199e-06
-4.36927e-07
-2.10972e-06
-5.48711e-07
-1.97639e-06
-6.49075e-07
-1.82467e-06
-7.35382e-07
-1.6577e-06
-8.05125e-07
-1.47907e-06
-8.55993e-07
-1.29278e-06
-8.85974e-07
-1.10317e-06
-8.93452e-07
-9.14837e-07
-8.77333e-07
-7.3251e-07
-8.37177e-07
-5.60958e-07
-7.73351e-07
-4.04851e-07
-6.87182e-07
-2.6864e-07
-5.81141e-07
-1.56456e-07
-4.59017e-07
-7.20559e-08
-3.26071e-07
-1.88395e-08
-1.89168e-07
-5.74164e-08
-2.28943e-08
8.50255e-08
-8.62391e-08
2.62805e-07
-1.84963e-07
4.37098e-07
-3.1407e-07
5.99472e-07
-4.68535e-07
7.43814e-07
-6.43287e-07
8.65671e-07
-8.33228e-07
9.6207e-07
-1.03329e-06
1.03131e-06
-1.2385e-06
1.07277e-06
-1.44406e-06
1.08666e-06
-1.64539e-06
1.07388e-06
-1.8382e-06
1.03583e-06
-2.01855e-06
9.74341e-07
-2.18286e-06
8.91512e-07
-2.32796e-06
7.89678e-07
-2.45109e-06
6.7134e-07
-2.54994e-06
5.39129e-07
-2.62266e-06
3.95786e-07
-2.66785e-06
2.44149e-07
-2.68459e-06
8.71445e-08
-2.67245e-06
-7.22147e-08
-2.63153e-06
-2.30833e-07
-2.56241e-06
-3.85542e-07
-2.46622e-06
-5.33117e-07
-2.34463e-06
-6.70303e-07
-2.19984e-06
-7.93856e-07
-2.03463e-06
-9.00599e-07
-1.85226e-06
-9.87491e-07
-1.65653e-06
-1.05172e-06
-1.45169e-06
-1.09082e-06
-1.24238e-06
-1.10276e-06
-1.03357e-06
-1.08614e-06
-8.30462e-07
-1.04029e-06
-6.38352e-07
-9.65461e-07
-4.62536e-07
-8.62998e-07
-3.08181e-07
-7.35495e-07
-1.8023e-07
-5.86969e-07
-8.33384e-08
-4.22963e-07
-2.18732e-08
-2.50634e-07
-7.92896e-08
-2.58511e-08
1.10877e-07
-9.71757e-08
3.34129e-07
-2.07921e-07
5.47843e-07
-3.52125e-07
7.43676e-07
-5.23877e-07
9.15566e-07
-7.17321e-07
1.05911e-06
-9.26685e-07
1.17143e-06
-1.14633e-06
1.25096e-06
-1.37083e-06
1.29727e-06
-1.59498e-06
1.31081e-06
-1.81391e-06
1.2928e-06
-2.02308e-06
1.24501e-06
-2.21836e-06
1.16962e-06
-2.39601e-06
1.06917e-06
-2.55275e-06
9.46418e-07
-2.68573e-06
8.04319e-07
-2.79256e-06
6.45959e-07
-2.87132e-06
4.74544e-07
-2.92056e-06
2.93387e-07
-2.93931e-06
1.05897e-07
-2.92711e-06
-8.44173e-08
-2.88399e-06
-2.7395e-07
-2.81053e-06
-4.59006e-07
-2.70782e-06
-6.35819e-07
-2.57755e-06
-8.00575e-07
-2.42195e-06
-9.4946e-07
-2.24383e-06
-1.07872e-06
-2.04658e-06
-1.18474e-06
-1.83416e-06
-1.26414e-06
-1.61104e-06
-1.31394e-06
-1.38218e-06
-1.33163e-06
-1.15291e-06
-1.3154e-06
-9.28928e-07
-1.26427e-06
-7.16096e-07
-1.17829e-06
-5.20382e-07
-1.05871e-06
-3.4772e-07
-9.08157e-07
-2.03905e-07
-7.30784e-07
-9.45105e-08
-5.32357e-07
-2.4852e-08
-3.20292e-07
-1.04142e-07
-2.87522e-08
1.39629e-07
-1.07943e-07
4.1332e-07
-2.30582e-07
6.70483e-07
-3.89767e-07
9.02861e-07
-5.78699e-07
1.1045e-06
-7.90724e-07
1.27114e-06
-1.01938e-06
1.40009e-06
-1.25844e-06
1.49002e-06
-1.50198e-06
1.54081e-06
-1.74444e-06
1.55327e-06
-1.98063e-06
1.52899e-06
-2.20578e-06
1.47016e-06
-2.4156e-06
1.37944e-06
-2.60623e-06
1.25979e-06
-2.77428e-06
1.11447e-06
-2.91684e-06
9.46885e-07
-3.03148e-06
7.60601e-07
-3.11624e-06
5.59296e-07
-3.16961e-06
3.46758e-07
-3.19059e-06
1.26878e-07
-3.17866e-06
-9.63436e-08
-3.13382e-06
-3.18795e-07
-3.05657e-06
-5.36256e-07
-2.94797e-06
-7.44412e-07
-2.80967e-06
-9.38879e-07
-2.64388e-06
-1.11525e-06
-2.45345e-06
-1.26915e-06
-2.24183e-06
-1.39635e-06
-2.01311e-06
-1.49287e-06
-1.77195e-06
-1.55509e-06
-1.52361e-06
-1.57997e-06
-1.27384e-06
-1.56518e-06
-1.0288e-06
-1.50931e-06
-7.94973e-07
-1.41212e-06
-5.79049e-07
-1.27464e-06
-3.87776e-07
-1.09943e-06
-2.27845e-07
-8.90715e-07
-1.05778e-07
-6.54423e-07
-2.78453e-08
-3.98225e-07
-1.31987e-07
-3.16436e-08
1.71272e-07
-1.18679e-07
5.00356e-07
-2.53191e-07
8.04995e-07
-4.27333e-07
1.077e-06
-6.33413e-07
1.31058e-06
-8.63961e-07
1.50169e-06
-1.1118e-06
1.64792e-06
-1.3701e-06
1.74833e-06
-1.63246e-06
1.80317e-06
-1.89292e-06
1.81373e-06
-2.146e-06
1.78207e-06
-2.38673e-06
1.7109e-06
-2.61066e-06
1.60337e-06
-2.81385e-06
1.46298e-06
-2.99285e-06
1.29347e-06
-3.14471e-06
1.09875e-06
-3.26699e-06
8.82874e-07
-3.35768e-06
6.49989e-07
-3.41527e-06
4.04351e-07
-3.43872e-06
1.50324e-07
-3.42745e-06
-1.07614e-07
-3.38138e-06
-3.64859e-07
-3.30096e-06
-6.16676e-07
-3.18717e-06
-8.58205e-07
-3.04156e-06
-1.08448e-06
-2.86631e-06
-1.2905e-06
-2.66424e-06
-1.47123e-06
-2.43882e-06
-1.62178e-06
-2.19422e-06
-1.73746e-06
-1.93532e-06
-1.814e-06
-1.66762e-06
-1.84767e-06
-1.39726e-06
-1.83553e-06
-1.13094e-06
-1.77564e-06
-8.75776e-07
-1.66728e-06
-6.39216e-07
-1.5112e-06
-4.28882e-07
-1.30976e-06
-2.52418e-07
-1.06718e-06
-1.17344e-07
-7.89497e-07
-3.09181e-08
-4.84651e-07
-1.62905e-07
-3.45656e-08
2.05838e-07
-1.2951e-07
5.953e-07
-2.7597e-07
9.51455e-07
-4.65139e-07
1.26617e-06
-6.88403e-07
1.53384e-06
-9.37451e-07
1.75074e-06
-1.20437e-06
1.91484e-06
-1.48173e-06
2.02568e-06
-1.7626e-06
2.08405e-06
-2.04067e-06
2.09179e-06
-2.31018e-06
2.05158e-06
-2.56597e-06
1.96669e-06
-2.80348e-06
1.84088e-06
-3.01871e-06
1.6782e-06
-3.20819e-06
1.48295e-06
-3.36898e-06
1.25954e-06
-3.49863e-06
1.01253e-06
-3.59516e-06
7.46518e-07
-3.65704e-06
4.6623e-07
-3.68319e-06
1.76474e-07
-3.67299e-06
-1.17818e-07
-3.62627e-06
-4.11573e-07
-3.54339e-06
-6.99561e-07
-3.4252e-06
-9.76392e-07
-3.27316e-06
-1.23653e-06
-3.08931e-06
-1.47434e-06
-2.87642e-06
-1.68412e-06
-2.63793e-06
-1.86027e-06
-2.37805e-06
-1.99733e-06
-2.1018e-06
-2.09025e-06
-1.81493e-06
-2.13453e-06
-1.52398e-06
-2.12648e-06
-1.23616e-06
-2.06346e-06
-9.59254e-07
-1.94418e-06
-7.01536e-07
-1.76891e-06
-4.71556e-07
-1.53974e-06
-2.77983e-07
-1.26075e-06
-1.29402e-07
-9.38078e-07
-3.4131e-08
-5.79922e-07
-1.97036e-07
-3.75534e-08
2.43392e-07
-1.40548e-07
6.98294e-07
-2.99126e-07
1.11003e-06
-5.0347e-07
1.47052e-06
-7.44007e-07
1.77438e-06
-1.01155e-06
2.01828e-06
-1.29742e-06
2.20072e-06
-1.59356e-06
2.32182e-06
-1.89256e-06
2.38305e-06
-2.18771e-06
2.38694e-06
-2.47301e-06
2.33688e-06
-2.74316e-06
2.23684e-06
-2.99352e-06
2.09124e-06
-3.22008e-06
1.90476e-06
-3.4194e-06
1.68227e-06
-3.58859e-06
1.42873e-06
-3.72524e-06
1.14918e-06
-3.82741e-06
8.48687e-07
-3.89358e-06
5.32401e-07
-3.92266e-06
2.05551e-07
-3.91396e-06
-1.26516e-07
-3.86724e-06
-4.58292e-07
-3.78271e-06
-7.84089e-07
-3.66109e-06
-1.09801e-06
-3.50366e-06
-1.39397e-06
-3.31231e-06
-1.66568e-06
-3.08966e-06
-1.90678e-06
-2.83906e-06
-2.11086e-06
-2.56473e-06
-2.27167e-06
-2.27173e-06
-2.38325e-06
-1.96606e-06
-2.4402e-06
-1.65461e-06
-2.43793e-06
-1.34512e-06
-2.37296e-06
-1.04608e-06
-2.24322e-06
-7.66615e-07
-2.04838e-06
-5.16288e-07
-1.79007e-06
-3.04877e-07
-1.47216e-06
-1.42135e-07
-1.10082e-06
-3.75403e-08
-6.84516e-07
-2.34576e-07
-4.06391e-08
2.84031e-07
-1.51896e-07
8.09552e-07
-3.22843e-07
1.28098e-06
-5.42583e-07
1.69026e-06
-8.00519e-07
2.03231e-06
-1.08654e-06
2.3043e-06
-1.39117e-06
2.50536e-06
-1.70571e-06
2.63636e-06
-2.02225e-06
2.69959e-06
-2.33374e-06
2.69843e-06
-2.63397e-06
2.6371e-06
-2.91752e-06
2.52039e-06
-3.17974e-06
2.35346e-06
-3.41665e-06
2.14168e-06
-3.62493e-06
1.89054e-06
-3.80176e-06
1.60556e-06
-3.94484e-06
1.29226e-06
-4.0523e-06
9.56151e-07
-4.12268e-06
6.02776e-07
-4.15486e-06
2.37737e-07
-4.14813e-06
-1.33248e-07
-4.10213e-06
-5.04295e-07
-4.01692e-06
-8.69301e-07
-3.89302e-06
-1.22191e-06
-3.73149e-06
-1.55549e-06
-3.53402e-06
-1.86316e-06
-3.30297e-06
-2.13782e-06
-3.04157e-06
-2.37227e-06
-2.7539e-06
-2.55934e-06
-2.44506e-06
-2.69208e-06
-2.12121e-06
-2.76405e-06
-1.78955e-06
-2.76959e-06
-1.45835e-06
-2.70416e-06
-1.13682e-06
-2.56476e-06
-8.34996e-07
-2.3502e-06
-5.6353e-07
-2.06154e-06
-3.3342e-07
-1.70227e-06
-1.55716e-07
-1.27852e-06
-4.11993e-08
-7.99034e-07
-2.75775e-07
-4.3853e-08
3.27884e-07
-1.63654e-07
9.29353e-07
-3.47298e-07
1.46462e-06
-5.82713e-07
1.92567e-06
-8.58192e-07
2.30779e-06
-1.16263e-06
2.60874e-06
-1.48573e-06
2.82846e-06
-1.81812e-06
2.96874e-06
-2.15139e-06
3.03287e-06
-2.4782e-06
3.02524e-06
-2.79215e-06
2.95105e-06
-3.08779e-06
2.81603e-06
-3.36051e-06
2.62618e-06
-3.60647e-06
2.38764e-06
-3.82247e-06
2.10654e-06
-4.00589e-06
1.78898e-06
-4.15458e-06
1.44095e-06
-4.2668e-06
1.06837e-06
-4.34115e-06
6.7713e-07
-4.37656e-06
2.73151e-07
-4.37226e-06
-1.3755e-07
-4.32778e-06
-5.48777e-07
-4.243e-06
-9.54081e-07
-4.11821e-06
-1.3467e-06
-3.95419e-06
-1.71951e-06
-3.7523e-06
-2.06505e-06
-3.51463e-06
-2.37549e-06
-3.24411e-06
-2.64279e-06
-2.94466e-06
-2.85879e-06
-2.62129e-06
-3.01545e-06
-2.28022e-06
-3.10512e-06
-1.92894e-06
-3.12087e-06
-1.57619e-06
-3.05691e-06
-1.23193e-06
-2.90902e-06
-9.07151e-07
-2.67498e-06
-6.13696e-07
-2.35499e-06
-3.63914e-07
-1.95206e-06
-1.70314e-07
-1.47212e-06
-4.51602e-08
-9.24187e-07
-3.20936e-07
-4.72268e-08
3.7511e-07
-1.75923e-07
1.05805e-06
-3.72669e-07
1.66137e-06
-6.24088e-07
2.17709e-06
-9.17251e-07
2.60095e-06
-1.23998e-06
2.93147e-06
-1.5811e-06
3.16957e-06
-1.93053e-06
3.31817e-06
-2.27943e-06
3.38177e-06
-2.62016e-06
3.36596e-06
-2.94621e-06
3.27711e-06
-3.25219e-06
3.122e-06
-3.53361e-06
2.9076e-06
-3.78684e-06
2.64087e-06
-4.00894e-06
2.32864e-06
-4.19752e-06
1.97757e-06
-4.35068e-06
1.59411e-06
-4.46686e-06
1.18454e-06
-4.54479e-06
7.55059e-07
-4.58344e-06
3.11809e-07
-4.58202e-06
-1.3897e-07
-4.53994e-06
-5.90856e-07
-4.45688e-06
-1.03714e-06
-4.33284e-06
-1.47074e-06
-4.16825e-06
-1.8841e-06
-3.96409e-06
-2.26921e-06
-3.72204e-06
-2.61755e-06
-3.44463e-06
-2.92019e-06
-3.13547e-06
-3.16795e-06
-2.79938e-06
-3.35155e-06
-2.44253e-06
-3.46197e-06
-2.07259e-06
-3.49081e-06
-1.69876e-06
-3.43074e-06
-1.33172e-06
-3.27607e-06
-9.83478e-07
-3.02321e-06
-6.67168e-07
-2.6713e-06
-3.9665e-07
-2.22257e-06
-1.86093e-07
-1.68268e-06
-4.94758e-08
-1.0608e-06
-3.70412e-07
-5.0796e-08
4.25906e-07
-1.88815e-07
1.19607e-06
-3.9915e-07
1.8717e-06
-6.66947e-07
2.44489e-06
-9.77912e-07
2.91192e-06
-1.31869e-06
3.27225e-06
-1.67715e-06
3.52803e-06
-2.04254e-06
3.68356e-06
-2.40555e-06
3.74478e-06
-2.75832e-06
3.71873e-06
-3.09435e-06
3.61314e-06
-3.40836e-06
3.43601e-06
-3.69612e-06
3.19537e-06
-3.95432e-06
2.89907e-06
-4.18037e-06
2.55469e-06
-4.37224e-06
2.16944e-06
-4.52834e-06
1.7502e-06
-4.64735e-06
1.30356e-06
-4.72822e-06
8.35924e-07
-4.77e-06
3.53588e-07
-4.77188e-06
-1.37092e-07
-4.73315e-06
-6.29582e-07
-4.65327e-06
-1.11702e-06
-4.53191e-06
-1.5921e-06
-4.36908e-06
-2.04693e-06
-4.16526e-06
-2.47302e-06
-3.92161e-06
-2.8612e-06
-3.64015e-06
-3.20165e-06
-3.32401e-06
-3.4841e-06
-2.97763e-06
-3.69793e-06
-2.60704e-06
-3.83257e-06
-2.21995e-06
-3.87789e-06
-1.82592e-06
-3.82477e-06
-1.43634e-06
-3.66565e-06
-1.06429e-06
-3.39527e-06
-7.24294e-07
-3.0113e-06
-4.31914e-07
-2.51495e-06
-2.03224e-07
-1.91137e-06
-5.42013e-08
-1.20983e-06
-4.24613e-07
-5.46041e-08
4.80511e-07
-2.02467e-07
1.34393e-06
-4.26969e-07
2.09621e-06
-7.11562e-07
2.72948e-06
-1.0404e-06
3.24076e-06
-1.39883e-06
3.63068e-06
-1.77369e-06
3.90289e-06
-2.15352e-06
4.06338e-06
-2.52861e-06
4.11987e-06
-2.89098e-06
4.0811e-06
-3.23421e-06
3.95637e-06
-3.55328e-06
3.75508e-06
-3.84436e-06
3.48645e-06
-4.10459e-06
3.1593e-06
-4.33185e-06
2.78195e-06
-4.52458e-06
2.36217e-06
-4.6816e-06
1.90722e-06
-4.80196e-06
1.42393e-06
-4.88484e-06
9.18802e-07
-4.92944e-06
3.98188e-07
-4.93496e-06
-1.3157e-07
-4.90059e-06
-6.63952e-07
-4.82553e-06
-1.19208e-06
-4.70909e-06
-1.70855e-06
-4.55076e-06
-2.20526e-06
-4.35045e-06
-2.67333e-06
-4.10865e-06
-3.103e-06
-3.82669e-06
-3.48361e-06
-3.50704e-06
-3.80374e-06
-3.15363e-06
-4.05134e-06
-2.77208e-06
-4.21412e-06
-2.37002e-06
-4.27995e-06
-1.95725e-06
-4.23754e-06
-1.54579e-06
-4.0771e-06
-1.14982e-06
-3.79123e-06
-7.854e-07
-3.37572e-06
-4.69997e-07
-2.83036e-06
-2.21889e-07
-2.15948e-06
-5.93974e-08
-1.37232e-06
-4.8401e-07
-5.87074e-08
5.39218e-07
-2.17053e-07
1.50228e-06
-4.56416e-07
2.33557e-06
-7.58269e-07
3.03134e-06
-1.10499e-06
3.58749e-06
-1.48045e-06
4.00614e-06
-1.87039e-06
4.29283e-06
-2.26265e-06
4.45564e-06
-2.64718e-06
4.5044e-06
-3.01597e-06
4.44989e-06
-3.36284e-06
4.30324e-06
-3.6832e-06
4.07544e-06
-3.97378e-06
3.77702e-06
-4.23232e-06
3.41784e-06
-4.45734e-06
3.00697e-06
-4.64788e-06
2.5527e-06
-4.80328e-06
2.06262e-06
-4.92305e-06
1.54369e-06
-5.00667e-06
1.00243e-06
-5.05356e-06
4.4508e-07
-5.06297e-06
-1.22159e-07
-5.03399e-06
-6.92934e-07
-4.96556e-06
-1.26051e-06
-4.85656e-06
-1.81754e-06
-4.70594e-06
-2.35588e-06
-4.5129e-06
-2.86638e-06
-4.27711e-06
-3.33879e-06
-3.99904e-06
-3.76168e-06
-3.68031e-06
-4.12247e-06
-3.32404e-06
-4.40761e-06
-2.93527e-06
-4.6029e-06
-2.52128e-06
-4.69394e-06
-2.09194e-06
-4.66688e-06
-1.65983e-06
-4.50922e-06
-1.24021e-06
-4.21085e-06
-8.50793e-07
-3.76514e-06
-5.11208e-07
-3.16994e-06
-2.42288e-07
-2.4284e-06
-6.5134e-08
-1.54947e-06
-5.49144e-07
-6.31811e-08
6.02399e-07
-2.32805e-07
1.6719e-06
-4.87867e-07
2.59063e-06
-8.07499e-07
3.35097e-06
-1.172e-06
3.95199e-06
-1.56359e-06
4.39772e-06
-1.96682e-06
4.69605e-06
-2.36883e-06
4.85766e-06
-2.75936e-06
4.89493e-06
-3.13051e-06
4.82105e-06
-3.47654e-06
4.64927e-06
-3.79349e-06
4.39239e-06
-4.07883e-06
4.06236e-06
-4.33111e-06
3.67012e-06
-4.54965e-06
3.2255e-06
-4.73422e-06
2.73728e-06
-4.88484e-06
2.21325e-06
-5.00156e-06
1.66041e-06
-5.08427e-06
1.08514e-06
-5.13265e-06
4.9346e-07
-5.14605e-06
-1.08759e-07
-5.12348e-06
-7.15505e-07
-5.06362e-06
-1.32037e-06
-4.96492e-06
-1.91625e-06
-4.82568e-06
-2.49512e-06
-4.64429e-06
-3.04777e-06
-4.41947e-06
-3.56361e-06
-4.15064e-06
-4.03051e-06
-3.83829e-06
-4.43482e-06
-3.48448e-06
-4.76142e-06
-3.09333e-06
-4.99404e-06
-2.67154e-06
-5.11573e-06
-2.22877e-06
-5.10964e-06
-1.77799e-06
-4.96e-06
-1.3355e-06
-4.65334e-06
-9.20774e-07
-4.17987e-06
-5.5589e-07
-3.53482e-06
-2.64659e-07
-2.71963e-06
-7.14951e-08
-1.74264e-06
-6.20639e-07
-6.81287e-08
6.70528e-07
-2.50033e-07
1.8538e-06
-5.21826e-07
2.86242e-06
-8.59817e-07
3.68896e-06
-1.24186e-06
4.33404e-06
-1.64828e-06
4.80414e-06
-2.06238e-06
5.11015e-06
-2.47067e-06
5.26594e-06
-2.86277e-06
5.28702e-06
-3.23115e-06
5.18943e-06
-3.57075e-06
4.98887e-06
-3.87847e-06
4.70011e-06
-4.15278e-06
4.33667e-06
-4.39325e-06
3.91059e-06
-4.60018e-06
3.43243e-06
-4.77425e-06
2.91135e-06
-4.91626e-06
2.35526e-06
-5.02691e-06
1.77106e-06
-5.10662e-06
1.16484e-06
-5.15536e-06
5.42209e-07
-5.17266e-06
-9.1459e-08
-5.15748e-06
-7.30687e-07
-5.10826e-06
-1.36959e-06
-5.02296e-06
-2.00154e-06
-4.89922e-06
-2.61886e-06
-4.73453e-06
-3.21247e-06
-4.5265e-06
-3.77164e-06
-4.27327e-06
-4.28374e-06
-3.97396e-06
-4.73413e-06
-3.62924e-06
-5.10614e-06
-3.24197e-06
-5.38131e-06
-2.81783e-06
-5.53987e-06
-2.36597e-06
-5.5615e-06
-1.89947e-06
-5.4265e-06
-1.43559e-06
-5.11722e-06
-9.95644e-07
-4.61982e-06
-6.04439e-07
-3.92603e-06
-2.89288e-07
-3.03478e-06
-7.85858e-08
-1.95334e-06
-6.99225e-07
-7.36934e-08
7.44221e-07
-2.69167e-07
2.04928e-06
-5.5897e-07
3.15223e-06
-9.15966e-07
4.04595e-06
-1.3151e-06
4.73317e-06
-1.73454e-06
5.22358e-06
-2.15628e-06
5.53189e-06
-2.56629e-06
5.67595e-06
-2.95434e-06
5.67507e-06
-3.31354e-06
5.54863e-06
-3.6398e-06
5.31513e-06
-3.93123e-06
4.99154e-06
-4.18755e-06
4.593e-06
-4.40959e-06
4.13263e-06
-4.59883e-06
3.62167e-06
-4.75703e-06
3.06954e-06
-4.8859e-06
2.48413e-06
-4.9869e-06
1.87206e-06
-5.06102e-06
1.23896e-06
-5.10866e-06
5.89854e-07
-5.12954e-06
-7.05784e-08
-5.12263e-06
-7.37602e-07
-5.08614e-06
-1.40608e-06
-5.01759e-06
-2.07009e-06
-4.9139e-06
-2.72255e-06
-4.77157e-06
-3.35479e-06
-4.587e-06
-3.9562e-06
-4.35685e-06
-4.51389e-06
-4.07857e-06
-5.01241e-06
-3.75108e-06
-5.43363e-06
-3.37553e-06
-5.75687e-06
-2.95613e-06
-5.95927e-06
-2.50105e-06
-6.01659e-06
-2.0231e-06
-5.90445e-06
-1.54026e-06
-5.60006e-06
-1.07572e-06
-5.08436e-06
-6.57338e-07
-4.34441e-06
-3.16542e-07
-3.37558e-06
-8.65423e-08
-2.18334e-06
-7.85768e-07
-8.00752e-08
8.24297e-07
-2.9079e-07
2.25999e-06
-6.00209e-07
3.46165e-06
-9.76913e-07
4.42266e-06
-1.39236e-06
5.14862e-06
-1.82227e-06
5.6535e-06
-2.24733e-06
5.95695e-06
-2.65319e-06
6.08181e-06
-3.03006e-06
6.05195e-06
-3.37212e-06
5.89069e-06
-3.67664e-06
5.61965e-06
-3.94329e-06
5.25819e-06
-4.17338e-06
4.82308e-06
-4.36925e-06
4.3285e-06
-4.53375e-06
3.78618e-06
-4.66988e-06
3.20566e-06
-4.78038e-06
2.59463e-06
-4.86755e-06
1.95923e-06
-4.93305e-06
1.30446e-06
-4.97775e-06
6.34553e-07
-5.00162e-06
-4.67048e-08
-5.0037e-06
-7.35527e-07
-4.98202e-06
-1.42775e-06
-4.93369e-06
-2.11843e-06
-4.85492e-06
-2.80132e-06
-4.74121e-06
-3.4685e-06
-4.58761e-06
-4.1098e-06
-4.38913e-06
-4.71237e-06
-4.14129e-06
-5.26025e-06
-3.84085e-06
-5.73407e-06
-3.48675e-06
-6.11097e-06
-3.08115e-06
-6.36487e-06
-2.6306e-06
-6.46713e-06
-2.14713e-06
-6.38792e-06
-1.64904e-06
-6.09814e-06
-1.16132e-06
-5.57209e-06
-7.15186e-07
-4.79054e-06
-3.46898e-07
-3.74387e-06
-9.5547e-08
-2.43469e-06
-8.81315e-07
-8.75555e-08
9.11852e-07
-3.1571e-07
2.48815e-06
-6.46755e-07
3.79269e-06
-1.04389e-06
4.81979e-06
-1.47435e-06
5.57908e-06
-1.91118e-06
6.09033e-06
-2.3338e-06
6.37957e-06
-2.72789e-06
6.4759e-06
-3.08463e-06
6.4087e-06
-3.39974e-06
6.2058e-06
-3.6724e-06
5.89231e-06
-3.90424e-06
5.49003e-06
-4.09851e-06
5.01735e-06
-4.25932e-06
4.48931e-06
-4.3911e-06
3.91797e-06
-4.49819e-06
3.31275e-06
-4.58445e-06
2.68089e-06
-4.65311e-06
2.02789e-06
-4.70652e-06
1.35788e-06
-4.74607e-06
6.74101e-07
-4.77205e-06
-2.07193e-08
-4.78362e-06
-7.23956e-07
-4.77873e-06
-1.43265e-06
-4.7541e-06
-2.14305e-06
-4.70532e-06
-2.85011e-06
-4.62689e-06
-3.54693e-06
-4.51249e-06
-4.2242e-06
-4.35536e-06
-4.86951e-06
-4.1488e-06
-5.4668e-06
-3.88705e-06
-5.99582e-06
-3.56626e-06
-6.43176e-06
-3.18585e-06
-6.74528e-06
-2.74998e-06
-6.90301e-06
-2.26906e-06
-6.86883e-06
-1.76117e-06
-6.60604e-06
-1.25278e-06
-6.08047e-06
-7.7875e-07
-5.26457e-06
-3.80995e-07
-4.14162e-06
-1.05851e-07
-2.70983e-06
-9.87166e-07
-9.65338e-08
1.00839e-06
-3.45034e-07
2.73665e-06
-7.00214e-07
4.14787e-06
-1.11841e-06
5.23798e-06
-1.56181e-06
6.02248e-06
-2.00051e-06
6.52902e-06
-2.41297e-06
6.79204e-06
-2.78548e-06
6.8484e-06
-3.11085e-06
6.73407e-06
-3.38707e-06
6.48202e-06
-3.61581e-06
6.12104e-06
-3.80118e-06
5.6754e-06
-3.94871e-06
5.16488e-06
-4.06453e-06
4.60513e-06
-4.15479e-06
4.00823e-06
-4.22524e-06
3.3832e-06
-4.28092e-06
2.73658e-06
-4.32597e-06
2.07294e-06
-4.36348e-06
1.39538e-06
-4.39536e-06
7.0598e-07
-4.42228e-06
6.19834e-09
-4.44357e-06
-7.02664e-07
-4.45718e-06
-1.41904e-06
-4.45959e-06
-2.14063e-06
-4.44585e-06
-2.86385e-06
-4.40958e-06
-3.5832e-06
-4.34314e-06
-4.29064e-06
-4.23792e-06
-4.97472e-06
-4.08488e-06
-5.61984e-06
-3.87533e-06
-6.20537e-06
-3.60208e-06
-6.70501e-06
-3.26098e-06
-7.08638e-06
-2.85279e-06
-7.31119e-06
-2.3853e-06
-7.33632e-06
-1.87536e-06
-7.11599e-06
-1.35041e-06
-6.60542e-06
-8.49021e-07
-5.76596e-06
-4.1971e-07
-4.57093e-06
-1.17809e-07
-3.01173e-06
-1.10497e-06
-1.07585e-07
1.11597e-06
-3.80298e-07
3.00936e-06
-7.62683e-07
4.53026e-06
-1.20226e-06
5.67756e-06
-1.65519e-06
6.47542e-06
-2.08859e-06
6.96242e-06
-2.48054e-06
7.18399e-06
-2.81879e-06
7.18665e-06
-3.09882e-06
7.0141e-06
-3.32175e-06
6.70495e-06
-3.49247e-06
6.29177e-06
-3.61809e-06
5.80102e-06
-3.70675e-06
5.25354e-06
-3.76679e-06
4.66517e-06
-3.80616e-06
4.04759e-06
-3.83202e-06
3.40906e-06
-3.85054e-06
2.75509e-06
-3.86672e-06
2.08912e-06
-3.88433e-06
1.413e-06
-3.90581e-06
7.27458e-07
-3.93221e-06
3.25952e-08
-3.96311e-06
-6.71757e-07
-3.99658e-06
-1.38558e-06
-4.029e-06
-2.10821e-06
-4.05507e-06
-2.83778e-06
-4.06772e-06
-3.57056e-06
-4.05815e-06
-4.30021e-06
-4.01602e-06
-5.01685e-06
-3.92986e-06
-5.706e-06
-3.78781e-06
-6.34742e-06
-3.5788e-06
-6.91403e-06
-3.29421e-06
-7.37096e-06
-2.93024e-06
-7.67516e-06
-2.4906e-06
-7.77597e-06
-1.98951e-06
-7.61707e-06
-1.45439e-06
-7.14055e-06
-9.27271e-07
-6.29307e-06
-4.64263e-07
-5.03394e-06
-1.31933e-07
-3.34407e-06
-1.23691e-06
-1.21549e-07
1.23752e-06
-4.23629e-07
3.31144e-06
-8.36862e-07
4.94349e-06
-1.29737e-06
6.13807e-06
-1.75433e-06
6.93237e-06
-2.17214e-06
7.38024e-06
-2.52959e-06
7.54144e-06
-2.81731e-06
7.47437e-06
-3.03475e-06
7.23154e-06
-3.18728e-06
6.85749e-06
-3.28382e-06
6.3883e-06
-3.33497e-06
5.85217e-06
-3.35175e-06
5.27032e-06
-3.34477e-06
4.6582e-06
-3.32373e-06
4.02655e-06
-3.2971e-06
3.38243e-06
-3.27202e-06
2.73001e-06
-3.25421e-06
2.07132e-06
-3.24801e-06
1.40679e-06
-3.2563e-06
7.3575e-07
-3.28052e-06
5.68115e-08
-3.32056e-06
-6.31714e-07
-3.3747e-06
-1.33144e-06
-3.43947e-06
-2.04345e-06
-3.50946e-06
-2.76778e-06
-3.57721e-06
-3.5028e-06
-3.63309e-06
-4.24434e-06
-3.66528e-06
-4.98465e-06
-3.66006e-06
-5.71122e-06
-3.60232e-06
-6.40517e-06
-3.47664e-06
-7.0397e-06
-3.26915e-06
-7.57845e-06
-2.97006e-06
-7.97426e-06
-2.57719e-06
-8.16883e-06
-2.10015e-06
-8.09411e-06
-1.56454e-06
-7.67616e-06
-1.01511e-06
-6.84251e-06
-5.16372e-07
-5.53267e-06
-1.48988e-07
-3.71145e-06
-1.3859e-06
-1.39688e-07
1.37721e-06
-4.77997e-07
3.64975e-06
-9.26118e-07
5.39161e-06
-1.40549e-06
6.61744e-06
-1.8575e-06
7.38438e-06
-2.24489e-06
7.76763e-06
-2.54902e-06
7.84557e-06
-2.76543e-06
7.69077e-06
-2.89929e-06
7.3654e-06
-2.96152e-06
6.91972e-06
-2.96587e-06
6.39265e-06
-2.92683e-06
5.81313e-06
-2.8584e-06
5.20189e-06
-2.77337e-06
4.57316e-06
-2.68292e-06
3.9361e-06
-2.59656e-06
3.29607e-06
-2.52212e-06
2.65556e-06
-2.46581e-06
2.015e-06
-2.4323e-06
1.37329e-06
-2.42481e-06
7.28263e-07
-2.4451e-06
7.7096e-08
-2.4934e-06
-5.83406e-07
-2.56838e-06
-1.25646e-06
-2.66689e-06
-1.94494e-06
-2.78378e-06
-2.65089e-06
-2.91164e-06
-3.37495e-06
-3.04048e-06
-4.1155e-06
-3.15753e-06
-4.8676e-06
-3.24722e-06
-5.62153e-06
-3.29141e-06
-6.36098e-06
-3.27025e-06
-7.06086e-06
-3.16382e-06
-7.68488e-06
-2.95497e-06
-8.18311e-06
-2.63343e-06
-8.49037e-06
-2.2014e-06
-8.52614e-06
-1.67987e-06
-8.19769e-06
-1.11445e-06
-7.40793e-06
-5.78472e-07
-6.06865e-06
-1.70139e-07
-4.11978e-06
-1.55603e-06
-1.63942e-07
1.54115e-06
-5.47551e-07
4.03336e-06
-1.03443e-06
5.87849e-06
-1.52736e-06
7.11036e-06
-1.95991e-06
7.81694e-06