/*--------------------------------*- C++ -*----------------------------------*\
| =========                 |                                                 |
| \\      /  F ield         | OpenFOAM: The Open Source CFD Toolbox           |
|  \\    /   O peration     | Version:  2206                                  |
|   \\  /    A nd           | Website:  www.openfoam.com                      |
|    \\/     M anipulation  |                                                 |
\*---------------------------------------------------------------------------*/
FoamFile
{
    version     2.0;
    format      ascii;
    arch        "LSB;label=32;scalar=64";
    class       volScalarField;
    location    "0.2";
    object      T;
}
// * * * * * * * * * * * * * * * * * * * * * * * * * * * * * * * * * * * * * //

dimensions      [0 0 0 1 0 0 0];

internalField   nonuniform List<scalar> 
1600
(
300
300
300
300
300
300
300
300
300
300
300.001
300.001
300.001
300.001
300.002
300.002
300.003
300.004
300.005
300.005
300.006
300.007
300.008
300.009
300.01
300.01
300.011
300.011
300.011
300.011
300.011
300.01
300.009
300.008
300.007
300.006
300.005
300.003
300.002
300.001
300
300
300
300
300
300
300
300.001
300.001
300.001
300.002
300.003
300.004
300.005
300.006
300.008
300.01
300.012
300.015
300.017
300.02
300.023
300.026
300.029
300.031
300.033
300.035
300.036
300.036
300.036
300.034
300.032
300.03
300.027
300.023
300.019
300.015
300.011
300.007
300.002
300
300
300
300
300
300.001
300.001
300.001
300.002
300.003
300.004
300.005
300.007
300.009
300.012
300.015
300.019
300.023
300.028
300.033
300.039
300.044
300.05
300.055
300.06
300.064
300.067
300.069
300.069
300.068
300.066
300.062
300.057
300.051
300.044
300.037
300.029
300.021
300.012
300.004
300
300
300
300
300.001
300.001
300.001
300.002
300.003
300.004
300.006
300.008
300.011
300.015
300.019
300.025
300.031
300.038
300.047
300.056
300.065
300.075
300.084
300.093
300.102
300.108
300.114
300.117
300.117
300.116
300.112
300.105
300.097
300.086
300.075
300.062
300.048
300.035
300.021
300.007
300
300
300
300.001
300.001
300.001
300.002
300.003
300.005
300.007
300.009
300.013
300.017
300.023
300.03
300.039
300.049
300.061
300.074
300.089
300.104
300.12
300.135
300.15
300.164
300.175
300.183
300.188
300.189
300.187
300.18
300.169
300.156
300.139
300.12
300.099
300.078
300.056
300.033
300.011
300
300
300.001
300.001
300.001
300.002
300.003
300.005
300.007
300.01
300.014
300.019
300.026
300.035
300.046
300.06
300.076
300.094
300.115
300.138
300.162
300.187
300.212
300.235
300.257
300.274
300.288
300.296
300.298
300.294
300.283
300.266
300.244
300.218
300.188
300.155
300.121
300.086
300.052
300.017
300
300
300.001
300.001
300.002
300.003
300.005
300.007
300.01
300.014
300.02
300.029
300.039
300.052
300.069
300.09
300.114
300.142
300.174
300.209
300.247
300.285
300.324
300.361
300.394
300.422
300.443
300.456
300.46
300.453
300.437
300.411
300.377
300.335
300.288
300.238
300.185
300.132
300.079
300.026
300
300.001
300.001
300.002
300.003
300.004
300.007
300.01
300.014
300.021
300.03
300.042
300.057
300.077
300.102
300.133
300.169
300.212
300.26
300.313
300.37
300.428
300.487
300.544
300.595
300.638
300.671
300.691
300.697
300.687
300.662
300.623
300.571
300.507
300.436
300.359
300.28
300.199
300.119
300.039
300
300.001
300.001
300.002
300.004
300.006
300.009
300.014
300.02
300.03
300.042
300.06
300.082
300.111
300.148
300.193
300.246
300.309
300.38
300.459
300.544
300.632
300.72
300.805
300.882
300.947
300.997
301.028
301.037
301.024
300.987
300.928
300.85
300.755
300.649
300.534
300.415
300.295
300.176
300.058
300
300.001
300.002
300.003
300.005
300.008
300.013
300.019
300.029
300.042
300.06
300.084
300.117
300.158
300.211
300.276
300.354
300.445
300.548
300.663
300.787
300.916
301.045
301.17
301.283
301.38
301.455
301.501
301.517
301.498
301.445
301.359
301.245
301.106
300.949
300.78
300.605
300.429
300.256
300.085
300
300.001
300.003
300.005
300.007
300.011
300.018
300.027
300.04
300.058
300.083
300.118
300.163
300.222
300.297
300.388
300.499
300.628
300.776
300.941
301.118
301.302
301.489
301.668
301.833
301.974
302.083
302.152
302.175
302.15
302.076
301.954
301.789
301.589
301.363
301.12
300.868
300.615
300.366
300.121
300.001
300.002
300.004
300.006
300.01
300.016
300.024
300.036
300.054
300.079
300.114
300.162
300.225
300.307
300.41
300.538
300.692
300.873
301.08
301.31
301.559
301.818
302.08
302.334
302.567
302.767
302.923
303.023
303.059
303.027
302.925
302.755
302.524
302.243
301.924
301.58
301.224
300.867
300.515
300.17
300.001
300.003
300.005
300.008
300.013
300.021
300.032
300.048
300.073
300.107
300.154
300.219
300.305
300.417
300.558
300.733
300.944
301.192
301.476
301.791
302.132
302.49
302.85
303.2
303.523
303.802
304.019
304.162
304.216
304.176
304.039
303.809
303.493
303.106
302.665
302.189
301.695
301.2
300.712
300.235
300.001
300.003
300.006
300.011
300.017
300.027
300.042
300.064
300.096
300.142
300.206
300.292
300.408
300.558
300.748
300.982
301.265
301.598
301.979
302.403
302.861
303.342
303.828
304.3
304.737
305.115
305.413
305.611
305.691
305.645
305.467
305.161
304.739
304.218
303.622
302.976
302.305
301.631
300.968
300.32
300.001
300.004
300.008
300.014
300.023
300.036
300.055
300.084
300.126
300.186
300.27
300.385
300.537
300.734
300.984
301.293
301.666
302.103
302.604
303.161
303.763
304.395
305.035
305.657
306.235
306.738
307.137
307.405
307.521
307.47
307.246
306.851
306.3
305.616
304.828
303.971
303.077
302.178
301.292
300.427
300.002
300.006
300.011
300.018
300.029
300.046
300.071
300.109
300.163
300.241
300.35
300.498
300.695
300.951
301.274
301.673
302.152
302.715
303.359
304.075
304.849
305.661
306.484
307.286
308.033
308.686
309.208
309.566
309.729
309.678
309.404
308.909
308.208
307.33
306.311
305.197
304.032
302.854
301.693
300.559
300.002
300.007
300.014
300.023
300.037
300.058
300.091
300.139
300.208
300.308
300.447
300.636
300.886
301.21
301.62
302.124
302.729
303.439
304.248
305.147
306.119
307.138
308.173
309.183
310.127
310.956
311.626
312.092
312.317
312.276
311.952
311.347
310.478
309.377
308.091
306.674
305.184
303.674
302.18
300.72
300.003
300.009
300.017
300.029
300.047
300.073
300.114
300.175
300.263
300.388
300.562
300.798
301.111
301.515
302.023
302.647
303.395
304.269
305.264
306.368
307.56
308.811
310.082
311.326
312.491
313.522
314.362
314.959
315.265
315.244
314.877
314.16
313.11
311.763
310.175
308.412
306.545
304.644
302.758
300.911
300.004
300.011
300.021
300.036
300.058
300.091
300.142
300.217
300.326
300.481
300.696
300.987
301.37
301.863
302.481
303.237
304.141
305.193
306.389
307.714
309.144
310.644
312.169
313.666
315.075
316.33
317.365
318.115
318.522
318.542
318.143
317.319
316.083
314.475
312.557
310.408
308.117
305.768
303.429
301.133
300.004
300.014
300.026
300.044
300.071
300.113
300.175
300.267
300.4
300.589
300.849
301.2
301.66
302.25
302.986
303.883
304.95
306.19
307.595
309.149
310.825
312.583
314.374
316.138
317.806
319.304
320.555
321.483
322.017
322.101
321.693
320.776
319.36
317.485
315.219
312.653
309.894
307.045
304.194
301.386
300.005
300.017
300.032
300.054
300.087
300.137
300.212
300.323
300.484
300.709
301.02
301.435
301.978
302.668
303.526
304.567
305.8
307.228
308.841
310.623
312.542
314.558
316.617
318.652
320.59
322.346
323.834
324.965
325.656
325.835
325.448
324.464
322.887
320.751
318.13
315.126
311.863
308.468
305.048
301.67
300.007
300.021
300.039
300.066
300.105
300.165
300.255
300.387
300.577
300.843
301.206
301.689
302.315
303.107
304.086
305.267
306.66
308.266
310.077
312.075
314.227
316.49
318.808
321.112
323.322
325.347
327.09
328.451
329.333
329.646
329.32
328.308
326.599
324.224
321.254
317.802
314.009
310.026
305.988
301.983
300.008
300.025
300.047
300.079
300.126
300.197
300.303
300.458
300.679
300.987
301.404
301.954
302.662
303.552
304.645
305.956
307.494
309.262
311.251
313.441
315.803
318.293
320.854
323.415
325.894
328.194
330.21
331.829
332.939
333.432
333.216
332.226
330.432
327.85
324.551
320.652
316.312
311.709
307.008
302.322
300.01
300.031
300.057
300.094
300.15
300.233
300.357
300.536
300.789
301.139
301.609
302.224
303.009
303.988
305.182
306.605
308.267
310.171
312.308
314.662
317.203
319.89
322.668
325.468
328.206
330.783
333.085
334.991
336.37
337.095
337.05
336.143
334.32
331.581
327.984
323.651
318.757
313.508
308.102
302.688
300.012
300.037
300.068
300.112
300.177
300.273
300.415
300.62
300.906
301.297
301.818
302.492
303.345
304.4
305.676
307.188
308.947
310.955
313.205
315.685
318.368
321.216
324.181
327.195
330.177
333.027
335.628
337.846
339.537
340.55
340.742
339.99
338.211
335.375
331.526
326.783
321.334
315.417
309.269
303.078
300.014
300.044
300.082
300.133
300.208
300.319
300.48
300.71
301.029
301.46
302.026
302.752
303.661
304.775
306.113
307.689
309.513
311.59
313.916
316.481
319.265
322.237
325.352
328.55
331.756
334.87
337.773
340.326
342.367
343.726
344.227
343.712
342.058
339.201
335.158
330.039
324.043
317.439
310.51
303.494
300.017
300.054
300.098
300.158
300.244
300.371
300.552
300.808
301.159
301.626
302.232
303.001
303.954
305.11
306.489
308.102
309.962
312.075
314.439
317.051
319.896
322.949
326.176
329.525
332.926
336.286
339.489
342.389
344.815
346.572
347.455
347.263
345.828
343.038
338.873
333.423
326.894
319.584
311.834
303.938
300.022
300.066
300.119
300.189
300.288
300.431
300.635
300.918
301.299
301.801
302.443
303.247
304.232
305.417
306.817
308.446
310.317
312.436
314.808
317.431
320.3
323.397
326.696
330.157
333.718
337.298
340.783
344.03
346.86
349.059
350.391
350.611
349.496
346.874
342.674
336.951
329.908
321.876
313.255
304.416
300.028
300.084
300.147
300.229
300.344
300.507
300.735
301.047
301.461
301.997
302.674
303.509
304.521
305.726
307.137
308.77
310.634
312.741
315.097
317.706
320.567
323.673
327.006
330.536
334.215
337.973
341.708
345.282
348.515
351.181
353.016
353.731
353.039
350.701
346.57
340.65
333.123
324.349
314.799
304.936
300.037
300.109
300.188
300.286
300.421
300.608
300.867
301.215
301.668
302.245
302.962
303.835
304.878
306.105
307.529
309.163
311.018
313.106
315.435
318.012
320.843
323.926
327.254
330.808
334.554
338.436
342.367
346.223
349.83
352.961
355.329
356.607
356.442
354.51
350.572
344.551
336.586
327.052
316.499
305.509
300.052
300.15
300.251
300.373
300.536
300.759
301.062
301.46
301.97
302.607
303.383
304.312
305.404
306.672
308.125
309.775
311.632
313.706
316.008
318.547
321.332
324.367
327.653
331.182
334.935
338.871
342.923
346.987
350.906
354.46
357.357
359.237
359.687
358.289
354.689
348.693
340.359
330.053
318.407
306.154
300.078
300.221
300.359
300.519
300.728
301.01
301.383
301.865
302.467
303.2
304.075
305.099
306.279
307.623
309.138
310.832
312.713
314.791
317.074
319.575
322.303
325.267
328.474
331.927
335.618
339.524
343.601
347.769
351.897
355.788
359.162
361.641
362.766
362.022
358.922
353.113
344.518
333.444
320.595
306.895
300.126
300.349
300.553
300.782
301.076
301.464
301.965
302.592
303.352
304.25
305.288
306.469
307.793
309.264
310.885
312.66
314.594
316.695
318.971
321.434
324.093
326.962
330.052
333.372
336.926
340.707
344.694
348.834
353.03
357.122
360.858
363.874
365.683
365.689
363.259
357.842
349.15
337.35
323.171
307.773
300.221
300.597
300.93
301.297
301.759
302.35
303.085
303.967
304.991
306.153
307.445
308.861
310.397
312.05
313.819
315.706
317.715
319.85
322.12
324.535
327.106
329.847
332.772
335.897
339.232
342.787
346.556
350.516
354.608
358.715
362.637
366.049
368.476
369.275
367.676
362.897
354.352
341.939
326.302
308.852
300.418
301.104
301.704
302.362
303.165
304.143
305.292
306.595
308.029
309.575
311.216
312.941
314.739
316.607
318.543
320.547
322.622
324.776
327.014
329.349
331.791
334.355
337.057
339.915
342.947
346.168
349.589
353.21
357.005
360.908
364.78
368.366
371.246
372.788
372.132
368.265
360.218
347.436
330.252
310.247
300.844
302.194
303.38
304.656
306.126
307.788
309.6
311.516
313.498
315.517
317.556
319.605
321.658
323.713
325.774
327.843
329.929
332.037
334.179
336.365
338.608
340.924
343.328
345.838
348.475
351.259
354.209
357.339
360.651
364.12
367.67
371.135
374.195
376.299
376.591
373.89
366.811
354.128
335.456
312.192
301.834
304.673
307.153
309.67
312.297
314.983
317.662
320.284
322.823
325.27
327.622
329.885
332.068
334.18
336.233
338.237
340.204
342.147
344.077
346.007
347.95
349.921
351.935
354.01
356.164
358.416
360.789
363.303
365.973
368.803
371.769
374.787
377.661
379.992
381.055
379.663
374.104
362.327
342.623
315.206
304.366
310.663
315.794
320.348
324.483
328.241
331.648
334.736
337.544
340.11
342.469
344.654
346.691
348.605
350.415
352.141
353.798
355.401
356.963
358.497
360.017
361.533
363.061
364.613
366.204
367.851
369.572
371.385
373.309
375.359
377.539
379.823
382.126
384.227
385.648
385.441
381.893
372.249
352.83
320.54
312.106
325.946
334.887
341.285
346.212
350.176
353.454
356.22
358.596
360.67
362.507
364.154
365.65
367.022
368.293
369.483
370.606
371.676
372.703
373.698
374.67
375.629
376.583
377.541
378.513
379.509
380.541
381.62
382.759
383.972
385.269
386.65
388.093
389.516
390.706
391.155
389.691
383.68
367.539
331.37
343.03
363.644
371.985
376.544
379.468
381.533
383.088
384.313
385.313
386.152
386.873
387.505
388.068
388.576
389.04
389.47
389.871
390.25
390.61
390.956
391.292
391.62
391.945
392.268
392.594
392.925
393.266
393.62
393.992
394.387
394.808
395.259
395.736
396.224
396.677
396.974
396.816
395.291
388.175
356.559
)
;

boundaryField
{
    movingWall
    {
        type            fixedValue;
        value           uniform 400;
    }
    fixedWalls
    {
        type            fixedValue;
        value           uniform 300;
    }
    frontAndBack
    {
        type            empty;
    }
}


// ************************************************************************* //
