/*--------------------------------*- C++ -*----------------------------------*\
| =========                 |                                                 |
| \\      /  F ield         | OpenFOAM: The Open Source CFD Toolbox           |
|  \\    /   O peration     | Version:  2206                                  |
|   \\  /    A nd           | Website:  www.openfoam.com                      |
|    \\/     M anipulation  |                                                 |
\*---------------------------------------------------------------------------*/
FoamFile
{
    version     2.0;
    format      ascii;
    arch        "LSB;label=32;scalar=64";
    class       volVectorField;
    location    "0.2";
    object      U;
}
// * * * * * * * * * * * * * * * * * * * * * * * * * * * * * * * * * * * * * //

dimensions      [0 1 -1 0 0 0 0];

internalField   nonuniform List<vector> 
1600
(
(6.06156e-05 -6.03796e-05 0)
(0.000155972 -5.70247e-05 0)
(0.0001567 -6.96231e-06 0)
(6.32071e-06 5.25105e-05 0)
(-0.00030362 0.000108032 0)
(-0.000756762 0.000154888 0)
(-0.00132865 0.000191716 0)
(-0.00199233 0.000218557 0)
(-0.0027206 0.000235987 0)
(-0.00348718 0.000244748 0)
(-0.00426735 0.000245633 0)
(-0.00503824 0.000239427 0)
(-0.00577902 0.00022689 0)
(-0.00647092 0.000208755 0)
(-0.00709732 0.000185733 0)
(-0.00764373 0.000158513 0)
(-0.00809782 0.000127779 0)
(-0.00844946 9.42115e-05 0)
(-0.00869072 5.84995e-05 0)
(-0.00881597 2.13521e-05 0)
(-0.00882191 -1.64961e-05 0)
(-0.0087077 -5.42785e-05 0)
(-0.00847502 -9.11927e-05 0)
(-0.00812817 -0.000126399 0)
(-0.00767415 -0.000159023 0)
(-0.00712275 -0.000188168 0)
(-0.00648653 -0.000212921 0)
(-0.00578082 -0.00023237 0)
(-0.00502366 -0.000245611 0)
(-0.00423564 -0.00025178 0)
(-0.00343967 -0.000250062 0)
(-0.00266069 -0.000239718 0)
(-0.00192521 -0.000220113 0)
(-0.00126069 -0.000190766 0)
(-0.000694715 -0.000151479 0)
(-0.000253502 -0.000102674 0)
(4.04481e-05 -4.62303e-05 0)
(0.00017401 1.26181e-05 0)
(0.000160195 6.01634e-05 0)
(6.02434e-05 6.00079e-05 0)
(5.87083e-05 -0.000156645 0)
(7.24945e-05 -6.91664e-05 0)
(-0.000178653 0.000182523 0)
(-0.000772884 0.000477001 0)
(-0.00172471 0.000760948 0)
(-0.00300759 0.00100922 0)
(-0.00457299 0.00121053 0)
(-0.00636154 0.00136095 0)
(-0.00830952 0.00146041 0)
(-0.0103527 0.00151079 0)
(-0.0124289 0.00151507 0)
(-0.0144791 0.00147679 0)
(-0.016449 0.00139984 0)
(-0.0182889 0.00128826 0)
(-0.0199545 0.00114619 0)
(-0.0214071 0.000977818 0)
(-0.0226137 0.000787409 0)
(-0.023547 0.000579295 0)
(-0.0241859 0.000357909 0)
(-0.0245156 0.000127811 0)
(-0.0245275 -0.000106281 0)
(-0.0242199 -0.000339486 0)
(-0.0235976 -0.000566743 0)
(-0.0226727 -0.000782835 0)
(-0.0214642 -0.000982415 0)
(-0.0199987 -0.00116007 0)
(-0.0183098 -0.00131039 0)
(-0.0164382 -0.00142808 0)
(-0.0144313 -0.0015081 0)
(-0.0123428 -0.00154578 0)
(-0.0102317 -0.00153703 0)
(-0.00816131 -0.00147859 0)
(-0.0061978 -0.00136828 0)
(-0.00440785 -0.00120556 0)
(-0.00285584 -0.000992316 0)
(-0.00159948 -0.000734605 0)
(-0.000683218 -0.000445974 0)
(-0.000127191 -0.000153569 0)
(9.18184e-05 8.82066e-05 0)
(6.17159e-05 0.000160588 0)
(1.14476e-05 -0.000162408 0)
(-0.000171918 0.000178829 0)
(-0.000803909 0.000814032 0)
(-0.00193056 0.0015361 0)
(-0.00355274 0.00223812 0)
(-0.00563453 0.00286064 0)
(-0.00811114 0.0033721 0)
(-0.0109011 0.00375811 0)
(-0.013915 0.0040145 0)
(-0.0170608 0.00414323 0)
(-0.0202479 0.00414997 0)
(-0.0233894 0.0040427 0)
(-0.0264041 0.00383084 0)
(-0.0292175 0.00352472 0)
(-0.0317628 0.00313523 0)
(-0.0339812 0.00267368 0)
(-0.0358226 0.00215169 0)
(-0.0372458 0.00158123 0)
(-0.0382188 0.000974574 0)
(-0.0387192 0.000344388 0)
(-0.0387343 -0.000296261 0)
(-0.0382617 -0.000933882 0)
(-0.0373092 -0.00155457 0)
(-0.0358954 -0.00214407 0)
(-0.0340497 -0.0026879 0)
(-0.0318124 -0.00317147 0)
(-0.0292344 -0.0035804 0)
(-0.026377 -0.00390075 0)
(-0.0233114 -0.00411945 0)
(-0.0201175 -0.00422473 0)
(-0.0168826 -0.00420674 0)
(-0.0136997 -0.00405821 0)
(-0.0106644 -0.00377545 0)
(-0.00787233 -0.00335974 0)
(-0.0054138 -0.0028195 0)
(-0.00336828 -0.00217407 0)
(-0.0017954 -0.00146007 0)
(-0.000723089 -0.000741242 0)
(-0.000138936 -0.000126735 0)
(1.76448e-05 0.00017977 0)
(-4.54183e-05 -2.16662e-05 0)
(-0.000464225 0.000768235 0)
(-0.00153478 0.00194114 0)
(-0.00324045 0.00322577 0)
(-0.00555213 0.0044666 0)
(-0.00841887 0.00556884 0)
(-0.0117597 0.0064775 0)
(-0.0154748 0.00716449 0)
(-0.0194544 0.0076192 0)
(-0.0235852 0.0078423 0)
(-0.0277543 0.00784191 0)
(-0.0318531 0.00763105 0)
(-0.0357791 0.00722596 0)
(-0.039438 0.00664503 0)
(-0.0427447 0.00590813 0)
(-0.0456244 0.00503616 0)
(-0.048013 0.00405087 0)
(-0.0498578 0.00297471 0)
(-0.0511181 0.00183087 0)
(-0.0517651 0.000643255 0)
(-0.0517831 -0.000563473 0)
(-0.0511689 -0.0017639 0)
(-0.0499329 -0.00293191 0)
(-0.0480992 -0.00404086 0)
(-0.0457055 -0.00506373 0)
(-0.0428032 -0.00597354 0)
(-0.0394572 -0.00674379 0)
(-0.0357456 -0.00734904 0)
(-0.0317583 -0.00776568 0)
(-0.027596 -0.00797284 0)
(-0.0233685 -0.00795349 0)
(-0.0191918 -0.00769589 0)
(-0.0151847 -0.00719529 0)
(-0.0114651 -0.00645651 0)
(-0.00814419 -0.0054974 0)
(-0.00531993 -0.00435444 0)
(-0.00306771 -0.00309111 0)
(-0.00142937 -0.00180959 0)
(-0.000419943 -0.000669708 0)
(-3.67031e-05 5.95043e-05 0)
(-0.000100481 0.000278806 0)
(-0.000760845 0.00172896 0)
(-0.00228863 0.00359096 0)
(-0.00459123 0.00555406 0)
(-0.00759915 0.0074257 0)
(-0.0112404 0.00908087 0)
(-0.0154152 0.0104427 0)
(-0.0200057 0.0114691 0)
(-0.0248843 0.0121422 0)
(-0.0299195 0.0124608 0)
(-0.0349808 0.0124355 0)
(-0.0399417 0.0120845 0)
(-0.0446827 0.0114318 0)
(-0.0490938 0.0105051 0)
(-0.0530751 0.00933472 0)
(-0.0565389 0.00795311 0)
(-0.05941 0.00639414 0)
(-0.0616263 0.00469299 0)
(-0.06314 0.00288607 0)
(-0.0639174 0.00101096 0)
(-0.0639398 -0.000893586 0)
(-0.0632038 -0.00278768 0)
(-0.0617217 -0.00463045 0)
(-0.0595217 -0.00638023 0)
(-0.0566481 -0.007995 0)
(-0.0531612 -0.0094329 0)
(-0.0491371 -0.010653 0)
(-0.0446669 -0.0116161 0)
(-0.0398557 -0.0122865 0)
(-0.0348211 -0.0126325 0)
(-0.0296905 -0.0126291 0)
(-0.0245988 -0.0122596 0)
(-0.0196842 -0.0115185 0)
(-0.0150834 -0.0104148 0)
(-0.0109264 -0.00897694 0)
(-0.00732988 -0.0072592 0)
(-0.00438792 -0.00535112 0)
(-0.00216259 -0.00338901 0)
(-0.000706935 -0.00157313 0)
(-8.96171e-05 -0.000214874 0)
(-0.000150702 0.000732586 0)
(-0.00104534 0.00306173 0)
(-0.00302788 0.00577077 0)
(-0.00592726 0.00852832 0)
(-0.00962842 0.0111164 0)
(-0.0140335 0.0133868 0)
(-0.0190212 0.0152445 0)
(-0.0244541 0.0166352 0)
(-0.0301871 0.0175348 0)
(-0.0360726 0.0179405 0)
(-0.0419643 0.0178657 0)
(-0.0477208 0.0173345 0)
(-0.0532091 0.0163794 0)
(-0.0583057 0.0150386 0)
(-0.0628994 0.0133544 0)
(-0.0668919 0.0113719 0)
(-0.070199 0.00913901 0)
(-0.0727513 0.00670533 0)
(-0.0744952 0.00412238 0)
(-0.075393 0.00144335 0)
(-0.0754235 -0.00127693 0)
(-0.0745829 -0.00398205 0)
(-0.0728847 -0.00661432 0)
(-0.0703601 -0.00911502 0)
(-0.0670585 -0.011425 0)
(-0.0630471 -0.0134856 0)
(-0.0584105 -0.0152393 0)
(-0.0532503 -0.0166318 0)
(-0.0476839 -0.0176131 0)
(-0.0418422 -0.0181398 0)
(-0.0358679 -0.0181776 0)
(-0.029912 -0.0177041 0)
(-0.0241295 -0.0167126 0)
(-0.0186752 -0.0152159 0)
(-0.0136978 -0.0132526 0)
(-0.00933437 -0.0108934 0)
(-0.00570104 -0.0082508 0)
(-0.00288516 -0.00548935 0)
(-0.000983167 -0.0028395 0)
(-0.000137878 -0.000637698 0)
(-0.000195993 0.00132934 0)
(-0.0013134 0.00475515 0)
(-0.00373876 0.00847293 0)
(-0.00722543 0.0121429 0)
(-0.0116112 0.0155316 0)
(-0.0167692 0.0184745 0)
(-0.0225539 0.0208634 0)
(-0.0288067 0.022635 0)
(-0.0353646 0.0237608 0)
(-0.0420641 0.024238 0)
(-0.0487444 0.0240837 0)
(-0.0552513 0.0233293 0)
(-0.0614395 0.0220166 0)
(-0.0671753 0.0201953 0)
(-0.0723377 0.0179208 0)
(-0.07682 0.0152526 0)
(-0.0805309 0.0122536 0)
(-0.0833953 0.0089893 0)
(-0.0853546 0.00552781 0)
(-0.0863679 0.00193941 0)
(-0.0864119 -0.00170344 0)
(-0.0854821 -0.00532629 0)
(-0.0835925 -0.00885299 0)
(-0.0807765 -0.0122061 0)
(-0.0770869 -0.0153078 0)
(-0.0725958 -0.0180808 0)
(-0.0673948 -0.0204496 0)
(-0.0615934 -0.0223427 0)
(-0.0553189 -0.0236946 0)
(-0.0487138 -0.0244485 0)
(-0.0419337 -0.0245595 0)
(-0.0351444 -0.0239983 0)
(-0.028517 -0.0227555 0)
(-0.0222243 -0.0208467 0)
(-0.0164349 -0.0183185 0)
(-0.0113084 -0.0152555 0)
(-0.00698613 -0.0117892 0)
(-0.00358426 -0.00810645 0)
(-0.00124451 -0.00445952 0)
(-0.000181368 -0.00119928 0)
(-0.000237285 0.00205936 0)
(-0.00156623 0.00679467 0)
(-0.00442024 0.011684 0)
(-0.0084816 0.0163865 0)
(-0.0135412 0.0206601 0)
(-0.0194418 0.024331 0)
(-0.0260111 0.0272827 0)
(-0.0330682 0.0294467 0)
(-0.0404312 0.0307931 0)
(-0.0479204 0.0313212 0)
(-0.0553612 0.0310538 0)
(-0.0625874 0.0300305 0)
(-0.0694434 0.0283043 0)
(-0.0757861 0.0259375 0)
(-0.0814868 0.0229997 0)
(-0.0864322 0.0195658 0)
(-0.0905252 0.0157148 0)
(-0.093686 0.0115295 0)
(-0.0958523 0.00709534 0)
(-0.0969804 0.00250095 0)
(-0.097045 -0.00216253 0)
(-0.0960406 -0.00680146 0)
(-0.0939811 -0.01132 0)
(-0.090901 -0.0156209 0)
(-0.0868552 -0.0196061 0)
(-0.0819193 -0.0231782 0)
(-0.0761895 -0.0262425 0)
(-0.0697821 -0.0287086 0)
(-0.0628321 -0.0304937 0)
(-0.0554921 -0.031526 0)
(-0.0479296 -0.0317482 0)
(-0.0403241 -0.031122 0)
(-0.0328633 -0.0296336 0)
(-0.0257384 -0.0272989 0)
(-0.0191396 -0.0241699 0)
(-0.0132512 -0.020342 0)
(-0.00824256 -0.0159613 0)
(-0.00426066 -0.0112317 0)
(-0.00149279 -0.00642151 0)
(-0.000221103 -0.00189076 0)
(-0.000275721 0.00291489 0)
(-0.0018072 0.00916697 0)
(-0.0050773 0.0153906 0)
(-0.00970153 0.0212471 0)
(-0.015425 0.0264915 0)
(-0.022059 0.0309459 0)
(-0.0294037 0.0344904 0)
(-0.0372541 0.0370558 0)
(-0.0454086 0.0386137 0)
(-0.0536709 0.0391689 0)
(-0.0618528 0.0387516 0)
(-0.0697768 0.0374122 0)
(-0.0772776 0.035216 0)
(-0.0842045 0.0322395 0)
(-0.0904222 0.0285676 0)
(-0.0958121 0.0242916 0)
(-0.100273 0.0195079 0)
(-0.10372 0.0143169 0)
(-0.10609 0.00882258 0)
(-0.107335 0.00313238 0)
(-0.107429 -0.00264308 0)
(-0.106364 -0.00839018 0)
(-0.104155 -0.0139927 0)
(-0.100835 -0.0193323 0)
(-0.0964596 -0.0242899 0)
(-0.0911074 -0.0287469 0)
(-0.0848773 -0.0325875 0)
(-0.0778904 -0.035701 0)
(-0.0702884 -0.0379856 0)
(-0.0622325 -0.0393521 0)
(-0.0539014 -0.0397286 0)
(-0.0454883 -0.0390657 0)
(-0.0371974 -0.0373421 0)
(-0.0292399 -0.0345712 0)
(-0.0218291 -0.0308072 0)
(-0.0151762 -0.0261524 0)
(-0.0094806 -0.0207637 0)
(-0.00492181 -0.014858 0)
(-0.0017323 -0.0087161 0)
(-0.000258383 -0.00270562 0)
(-0.000312356 0.00389046 0)
(-0.00204019 0.0118618 0)
(-0.00571724 0.0195817 0)
(-0.0108954 0.0267149 0)
(-0.0172752 0.0330174 0)
(-0.0246359 0.0383113 0)
(-0.032749 0.0424782 0)
(-0.0413848 0.0454521 0)
(-0.0503209 0.0472104 0)
(-0.0593442 0.0477661 0)
(-0.0682528 0.0471603 0)
(-0.0768582 0.0454559 0)
(-0.0849865 0.0427326 0)
(-0.0924802 0.0390827 0)
(-0.0991987 0.0346078 0)
(-0.105019 0.0294166 0)
(-0.109837 0.0236234 0)
(-0.113565 0.0173471 0)
(-0.116137 0.0107104 0)
(-0.117504 0.00384025 0)
(-0.117637 -0.00313303 0)
(-0.116528 -0.0100754 0)
(-0.114188 -0.0168497 0)
(-0.110651 -0.0233161 0)
(-0.105972 -0.0293335 0)
(-0.100229 -0.0347609 0)
(-0.0935236 -0.03946 0)
(-0.0859797 -0.0432982 0)
(-0.0777445 -0.0461524 0)
(-0.0689866 -0.0479139 0)
(-0.0598954 -0.0484933 0)
(-0.0506777 -0.0478268 0)
(-0.041555 -0.0458827 0)
(-0.0327593 -0.042668 0)
(-0.0245289 -0.0382354 0)
(-0.017104 -0.0326905 0)
(-0.0107159 -0.0261973 0)
(-0.00557804 -0.0189828 0)
(-0.0019681 -0.0113383 0)
(-0.000294469 -0.00364019 0)
(-0.000348093 0.0049828 0)
(-0.002269 0.0148727 0)
(-0.00634793 0.0242501 0)
(-0.012075 0.0327834 0)
(-0.0191066 0.0402318 0)
(-0.0271899 0.0464215 0)
(-0.0360668 0.0512398 0)
(-0.045482 0.054628 0)
(-0.0551917 0.0565735 0)
(-0.0649655 0.0571012 0)
(-0.0745881 0.0562661 0)
(-0.0838604 0.0541464 0)
(-0.0926006 0.0508385 0)
(-0.100646 0.0464522 0)
(-0.10785 0.0411071 0)
(-0.114089 0.0349302 0)
(-0.119256 0.0280546 0)
(-0.123261 0.0206178 0)
(-0.126035 0.0127618 0)
(-0.12753 0.00463269 0)
(-0.127714 -0.00361918 0)
(-0.126576 -0.0118394 0)
(-0.124126 -0.0198698 0)
(-0.120396 -0.0275485 0)
(-0.115439 -0.0347118 0)
(-0.109332 -0.0411954 0)
(-0.102176 -0.0468372 0)
(-0.0940972 -0.0514807 0)
(-0.0852466 -0.0549793 0)
(-0.0757994 -0.0572019 0)
(-0.0659547 -0.0580384 0)
(-0.0559329 -0.0574069 0)
(-0.0459734 -0.0552613 0)
(-0.03633 -0.0515981 0)
(-0.027268 -0.0464646 0)
(-0.0190582 -0.0399655 0)
(-0.0119661 -0.032269 0)
(-0.0062406 -0.0236095 0)
(-0.0022053 -0.0142887 0)
(-0.000330503 -0.00469366 0)
(-0.000383682 0.00619064 0)
(-0.00249706 0.0181971 0)
(-0.00697694 0.0293929 0)
(-0.0132521 0.0394497 0)
(-0.0209346 0.0481321 0)
(-0.0297388 0.0552735 0)
(-0.0393764 0.0607707 0)
(-0.0495657 0.0645772 0)
(-0.0600409 0.0666943 0)
(-0.0705544 0.067163 0)
(-0.0808773 0.0660555 0)
(-0.0908007 0.0634688 0)
(-0.100136 0.0595182 0)
(-0.108715 0.054333 0)
(-0.116391 0.0480522 0)
(-0.123035 0.0408221 0)
(-0.12854 0.032795 0)
(-0.132817 0.0241274 0)
(-0.135795 0.0149803 0)
(-0.137424 0.00551888 0)
(-0.13767 -0.00408703 0)
(-0.136522 -0.013663 0)
(-0.133985 -0.0230297 0)
(-0.130088 -0.0320036 0)
(-0.124882 -0.0403978 0)
(-0.11844 -0.0480239 0)
(-0.110862 -0.0546947 0)
(-0.102274 -0.0602278 0)
(-0.0928284 -0.0644508 0)
(-0.0827067 -0.0672065 0)
(-0.0721163 -0.0683606 0)
(-0.0612912 -0.067809 0)
(-0.0504886 -0.0654864 0)
(-0.0399859 -0.0613742 0)
(-0.0300761 -0.0555096 0)
(-0.0210634 -0.0479926 0)
(-0.0132494 -0.038992 0)
(-0.00692077 -0.0287483 0)
(-0.00244879 -0.0175731 0)
(-0.0003675 -0.00586792 0)
(-0.000419751 0.00751443 0)
(-0.0027274 0.0218357 0)
(-0.00761122 0.0350112 0)
(-0.0144377 0.046715 0)
(-0.0227734 0.0567184 0)
(-0.032299 0.0648656 0)
(-0.0426951 0.0710671 0)
(-0.0536525 0.0752927 0)
(-0.0648835 0.0775626 0)
(-0.0761229 0.077938 0)
(-0.0871288 0.0765127 0)
(-0.0976834 0.0734053 0)
(-0.107592 0.0687533 0)
(-0.116684 0.0627072 0)
(-0.12481 0.0554272 0)
(-0.131842 0.0470798 0)
(-0.137673 0.0378366 0)
(-0.142214 0.0278733 0)
(-0.145396 0.0173693 0)
(-0.147165 0.00650849 0)
(-0.147487 -0.00452075 0)
(-0.146348 -0.0155245 0)
(-0.14375 -0.0263033 0)
(-0.139717 -0.0366519 0)
(-0.134295 -0.0463603 0)
(-0.127553 -0.0552153 0)
(-0.119588 -0.0630034 0)
(-0.110522 -0.0695144 0)
(-0.100509 -0.0745469 0)
(-0.0897323 -0.0779147 0)
(-0.0784086 -0.0794546 0)
(-0.0667837 -0.0790355 0)
(-0.0551331 -0.0765674 0)
(-0.0437581 -0.0720116 0)
(-0.0329817 -0.0653898 0)
(-0.0231434 -0.0567926 0)
(-0.0145836 -0.0463864 0)
(-0.00762936 -0.0344158 0)
(-0.00270316 -0.0212031 0)
(-0.000406373 -0.0071674 0)
(-0.000456831 0.00895613 0)
(-0.00296272 0.0257929 0)
(-0.00825707 0.04111 0)
(-0.0156416 0.0545835 0)
(-0.0246358 0.0659935 0)
(-0.0348847 0.0751976 0)
(-0.0460367 0.0821246 0)
(-0.0577546 0.0867658 0)
(-0.0697279 0.089165 0)
(-0.0816743 0.0894086 0)
(-0.0933398 0.0876163 0)
(-0.104499 0.0839324 0)
(-0.114952 0.0785192 0)
(-0.124527 0.0715511 0)
(-0.133077 0.0632107 0)
(-0.140473 0.0536857 0)
(-0.146612 0.0431673 0)
(-0.151405 0.0318499 0)
(-0.154785 0.0199307 0)
(-0.156698 0.00761096 0)
(-0.157111 -0.00490326 0)
(-0.156002 -0.0174 0)
(-0.153373 -0.0296604 0)
(-0.14924 -0.0414585 0)
(-0.143643 -0.0525615 0)
(-0.136645 -0.0627312 0)
(-0.128335 -0.0717264 0)
(-0.118833 -0.0793073 0)
(-0.108288 -0.0852406 0)
(-0.0968861 -0.0893071 0)
(-0.0848487 -0.09131 0)
(-0.0724334 -0.0910854 0)
(-0.0599333 -0.0885129 0)
(-0.0476744 -0.0835268 0)
(-0.036011 -0.0761276 0)
(-0.0253204 -0.0663915 0)
(-0.0159852 -0.0544785 0)
(-0.00837665 -0.0406353 0)
(-0.00297273 -0.0251953 0)
(-0.000447959 -0.00859885 0)
(-0.000495395 0.010519 0)
(-0.00320547 0.0300757 0)
(-0.00892027 0.0476978 0)
(-0.016873 0.063063 0)
(-0.0265331 0.0759617 0)
(-0.0375081 0.0862694 0)
(-0.0494121 0.0939374 0)
(-0.0618789 0.0989839 0)
(-0.0745753 0.101483 0)
(-0.0872022 0.10155 0)
(-0.0994945 0.0993371 0)
(-0.11122 0.0950177 0)
(-0.122179 0.0887824 0)
(-0.132198 0.0808319 0)
(-0.141132 0.0713729 0)
(-0.148859 0.0606149 0)
(-0.155278 0.0487688 0)
(-0.160306 0.0360468 0)
(-0.163875 0.0226631 0)
(-0.165935 0.00883466 0)
(-0.16645 -0.0052165 0)
(-0.165397 -0.019262 0)
(-0.162769 -0.0330655 0)
(-0.158579 -0.0463814 0)
(-0.152857 -0.058955 0)
(-0.145657 -0.0705229 0)
(-0.137059 -0.0808158 0)
(-0.127174 -0.0895622 0)
(-0.116146 -0.096494 0)
(-0.104161 -0.101355 0)
(-0.0914403 -0.103908 0)
(-0.078253 -0.103952 0)
(-0.0649085 -0.101327 0)
(-0.0517573 -0.0959353 0)
(-0.0391869 -0.0877474 0)
(-0.027615 -0.0768194 0)
(-0.0174701 -0.0633 0)
(-0.00917241 -0.0474359 0)
(-0.00326159 -0.0295714 0)
(-0.000493049 -0.0101712 0)
(-0.000535896 0.0122077 0)
(-0.00345801 0.034694 0)
(-0.00960633 0.0547862 0)
(-0.0181405 0.0721633 0)
(-0.0284758 0.0866288 0)
(-0.040179 0.0980796 0)
(-0.0528282 0.106496 0)
(-0.066027 0.111929 0)
(-0.079419 0.114488 0)
(-0.0926894 0.114328 0)
(-0.105564 0.111634 0)
(-0.117805 0.106616 0)
(-0.129215 0.0994967 0)
(-0.139623 0.0905046 0)
(-0.148891 0.0798724 0)
(-0.156903 0.067832 0)
(-0.163565 0.0546138 0)
(-0.168798 0.0404469 0)
(-0.172542 0.0255606 0)
(-0.174747 0.0101859 0)
(-0.175375 -0.00544185 0)
(-0.174402 -0.0210802 0)
(-0.171816 -0.0364773 0)
(-0.167619 -0.0513702 0)
(-0.161832 -0.0654834 0)
(-0.154497 -0.0785293 0)
(-0.145681 -0.0902098 0)
(-0.135484 -0.10022 0)
(-0.12404 -0.108254 0)
(-0.111528 -0.114014 0)
(-0.0981707 -0.117218 0)
(-0.0842428 -0.117618 0)
(-0.0700688 -0.11501 0)
(-0.0560236 -0.10925 0)
(-0.0425288 -0.100274 0)
(-0.0300455 -0.0881095 0)
(-0.019053 -0.0728881 0)
(-0.010026 -0.0548525 0)
(-0.00357374 -0.0343576 0)
(-0.000542424 -0.0118956 0)
(-0.000578806 0.0140278 0)
(-0.00372279 0.0396605 0)
(-0.0103209 0.0623899 0)
(-0.0194526 0.0818968 0)
(-0.0304734 0.0980006 0)
(-0.0429058 0.110625 0)
(-0.0562889 0.119786 0)
(-0.0701947 0.125575 0)
(-0.0842439 0.128145 0)
(-0.098107 0.127695 0)
(-0.111502 0.124453 0)
(-0.124192 0.118669 0)
(-0.13598 0.1106 0)
(-0.146706 0.100508 0)
(-0.156239 0.0886529 0)
(-0.164474 0.0752883 0)
(-0.171326 0.0606638 0)
(-0.176726 0.0450241 0)
(-0.180619 0.0286113 0)
(-0.18296 0.0116676 0)
(-0.183712 -0.00556077 0)
(-0.182846 -0.0228207 0)
(-0.180345 -0.0398479 0)
(-0.176201 -0.0563646 0)
(-0.170421 -0.0720769 0)
(-0.163033 -0.0866739 0)
(-0.154088 -0.0998293 0)
(-0.143668 -0.111203 0)
(-0.131896 -0.12045 0)
(-0.118936 -0.127224 0)
(-0.105008 -0.131194 0)
(-0.0903885 -0.132055 0)
(-0.0754141 -0.129548 0)
(-0.060483 -0.123477 0)
(-0.0460518 -0.11373 0)
(-0.0326284 -0.100297 0)
(-0.0207478 -0.0832837 0)
(-0.0109466 -0.062925 0)
(-0.00391322 -0.0395848 0)
(-0.000596891 -0.013785 0)
(-0.000624662 0.0159864 0)
(-0.00400257 0.0449905 0)
(-0.0110703 0.0705267 0)
(-0.0208184 0.0922776 0)
(-0.0325358 0.110082 0)
(-0.0456958 0.123899 0)
(-0.059795 0.133785 0)
(-0.0743724 0.139884 0)
(-0.0890261 0.142401 0)
(-0.103413 0.141586 0)
(-0.117248 0.137719 0)
(-0.130296 0.131094 0)
(-0.142369 0.12201 0)
(-0.153318 0.110763 0)
(-0.163026 0.0976399 0)
(-0.171402 0.0829185 0)
(-0.178375 0.0668661 0)
(-0.183889 0.0497407 0)
(-0.187896 0.0317946 0)
(-0.190358 0.0132782 0)
(-0.191238 -0.00555565 0)
(-0.190508 -0.0244467 0)
(-0.18814 -0.0431224 0)
(-0.184117 -0.0612934 0)
(-0.17843 -0.0786506 0)
(-0.17109 -0.0948623 0)
(-0.162125 -0.109574 0)
(-0.151597 -0.122413 0)
(-0.139608 -0.132987 0)
(-0.126305 -0.140902 0)
(-0.111898 -0.145767 0)
(-0.0966583 -0.147214 0)
(-0.0809318 -0.144917 0)
(-0.0651373 -0.138614 0)
(-0.0497668 -0.128134 0)
(-0.0353781 -0.113415 0)
(-0.0225681 -0.0945308 0)
(-0.0119437 -0.0716984 0)
(-0.00428424 -0.0452884 0)
(-0.000657319 -0.0158547 0)
(-0.000674129 0.0180922 0)
(-0.0043007 0.050703 0)
(-0.011862 0.0792177 0)
(-0.0222487 0.103321 0)
(-0.0346742 0.122879 0)
(-0.0485561 0.137888 0)
(-0.0633449 0.148463 0)
(-0.0785447 0.154806 0)
(-0.0937316 0.157186 0)
(-0.108553 0.155917 0)
(-0.122722 0.151335 0)
(-0.136012 0.143789 0)
(-0.148248 0.133621 0)
(-0.159298 0.121164 0)
(-0.169066 0.106736 0)
(-0.177479 0.0906374 0)
(-0.184484 0.0731506 0)
(-0.190041 0.0545451 0)
(-0.194113 0.03508 0)
(-0.196671 0.0150096 0)
(-0.197681 -0.00541092 0)
(-0.197112 -0.025919 0)
(-0.194931 -0.0462385 0)
(-0.191107 -0.0660735 0)
(-0.185614 -0.0851035 0)
(-0.17844 -0.102979 0)
(-0.169589 -0.119321 0)
(-0.159095 -0.13372 0)
(-0.147032 -0.145742 0)
(-0.133523 -0.154934 0)
(-0.118758 -0.160842 0)
(-0.103 -0.163022 0)
(-0.0865946 -0.16107 0)
(-0.069979 -0.154644 0)
(-0.0536796 -0.143496 0)
(-0.0383071 -0.127498 0)
(-0.0245271 -0.106676 0)
(-0.0130269 -0.0812219 0)
(-0.00469142 -0.0515084 0)
(-0.00072469 -0.0181224 0)
(-0.00072808 0.0203556 0)
(-0.00462151 0.0568208 0)
(-0.0127057 0.0884882 0)
(-0.0237569 0.115046 0)
(-0.0369019 0.136391 0)
(-0.0514946 0.152574 0)
(-0.0669347 0.163774 0)
(-0.0826899 0.170271 0)
(-0.0983157 0.172408 0)
(-0.113453 0.170575 0)
(-0.127819 0.165177 0)
(-0.141203 0.156619 0)
(-0.153449 0.145296 0)
(-0.16445 0.13158 0)
(-0.174133 0.11582 0)
(-0.182452 0.0983362 0)
(-0.189376 0.079427 0)
(-0.194884 0.0593691 0)
(-0.198957 0.0384242 0)
(-0.201574 0.0168456 0)
(-0.202708 -0.00511437 0)
(-0.202326 -0.0271967 0)
(-0.200389 -0.0491273 0)
(-0.196851 -0.0706096 0)
(-0.191668 -0.0913169 0)
(-0.1848 -0.110887 0)
(-0.176223 -0.128919 0)
(-0.165936 -0.144969 0)
(-0.153977 -0.158558 0)
(-0.140438 -0.169175 0)
(-0.125476 -0.176291 0)
(-0.109336 -0.179379 0)
(-0.0923576 -0.177939 0)
(-0.0749897 -0.171532 0)
(-0.0577906 -0.159813 0)
(-0.0414264 -0.142571 0)
(-0.0266387 -0.119765 0)
(-0.0142073 -0.0915491 0)
(-0.00514005 -0.0582898 0)
(-0.000800169 -0.0206082 0)
(-0.000787702 0.0227899 0)
(-0.00497082 0.0633722 0)
(-0.0136138 0.0983684 0)
(-0.0253604 0.127471 0)
(-0.0392358 0.150618 0)
(-0.0545207 0.167926 0)
(-0.0705583 0.179659 0)
(-0.0867791 0.186186 0)
(-0.10272 0.187948 0)
(-0.118022 0.185419 0)
(-0.132413 0.179084 0)
(-0.145705 0.169417 0)
(-0.15777 0.156866 0)
(-0.168533 0.141847 0)
(-0.177953 0.124737 0)
(-0.186016 0.105879 0)
(-0.192719 0.0855818 0)
(-0.198066 0.0641253 0)
(-0.202056 0.0417692 0)
(-0.204683 0.0187601 0)
(-0.205926 -0.00465872 0)
(-0.205754 -0.0282382 0)
(-0.20412 -0.0517134 0)
(-0.200965 -0.0747937 0)
(-0.196222 -0.0971533 0)
(-0.189824 -0.118423 0)
(-0.18171 -0.138185 0)
(-0.171838 -0.155966 0)
(-0.160202 -0.17124 0)
(-0.146849 -0.183436 0)
(-0.131897 -0.191944 0)
(-0.115558 -0.196142 0)
(-0.0981543 -0.195418 0)
(-0.0801373 -0.189214 0)
(-0.0620934 -0.177066 0)
(-0.0447451 -0.158653 0)
(-0.0289175 -0.133845 0)
(-0.0154972 -0.102738 0)
(-0.00563646 -0.0656833 0)
(-0.000885192 -0.0233352 0)
(-0.000854643 0.0254116 0)
(-0.00535653 0.0703928 0)
(-0.0146035 0.108895 0)
(-0.0270823 0.140619 0)
(-0.0416979 0.165553 0)
(-0.0576459 0.183902 0)
(-0.0742069 0.196033 0)
(-0.090774 0.202432 0)
(-0.106871 0.20365 0)
(-0.122143 0.200267 0)
(-0.136343 0.192858 0)
(-0.149311 0.181974 0)
(-0.160961 0.168122 0)
(-0.171257 0.151762 0)
(-0.1802 0.133301 0)
(-0.187812 0.113101 0)
(-0.194126 0.0914757 0)
(-0.199173 0.068705 0)
(-0.202978 0.0450401 0)
(-0.205549 0.020715 0)
(-0.206877 -0.00404329 0)
(-0.206932 -0.0290031 0)
(-0.205662 -0.0539164 0)
(-0.202993 -0.0785064 0)
(-0.198837 -0.102457 0)
(-0.193093 -0.125399 0)
(-0.18566 -0.146904 0)
(-0.176449 -0.166476 0)
(-0.1654 -0.183546 0)
(-0.152503 -0.19748 0)
(-0.137822 -0.207582 0)
(-0.121521 -0.213122 0)
(-0.103891 -0.213361 0)
(-0.0853732 -0.207596 0)
(-0.0665737 -0.195214 0)
(-0.0482706 -0.175751 0)
(-0.0313802 -0.148958 0)
(-0.0169118 -0.114851 0)
(-0.00618856 -0.0737462 0)
(-0.000981594 -0.0263303 0)
(-0.000931227 0.0282422 0)
(-0.00578959 0.0779275 0)
(-0.0156978 0.120115 0)
(-0.0289535 0.154513 0)
(-0.0443168 0.181183 0)
(-0.0608838 0.200441 0)
(-0.077867 0.212787 0)
(-0.0946231 0.218849 0)
(-0.110669 0.219315 0)
(-0.125668 0.214889 0)
(-0.139407 0.206251 0)
(-0.151771 0.194033 0)
(-0.162722 0.178809 0)
(-0.172278 0.161083 0)
(-0.180487 0.141289 0)
(-0.187418 0.119803 0)
(-0.193143 0.0969414 0)
(-0.197728 0.072976 0)
(-0.201223 0.0481439 0)
(-0.203657 0.0226588 0)
(-0.205034 -0.00327583 0)
(-0.205327 -0.0294537 0)
(-0.20448 -0.0556522 0)
(-0.202406 -0.081618 0)
(-0.198994 -0.107053 0)
(-0.194109 -0.131599 0)
(-0.187607 -0.154827 0)
(-0.179342 -0.176224 0)
(-0.169193 -0.195185 0)
(-0.157078 -0.211013 0)
(-0.142992 -0.222926 0)
(-0.127033 -0.230073 0)
(-0.10944 -0.231567 0)
(-0.0906267 -0.226535 0)
(-0.0712065 -0.214179 0)
(-0.0520083 -0.193852 0)
(-0.034046 -0.165144 0)
(-0.0184698 -0.127954 0)
(-0.00680654 -0.0825437 0)
(-0.0010918 -0.0296251 0)
(-0.00102076 0.0313098 0)
(-0.00628522 0.0860345 0)
(-0.0169282 0.132083 0)
(-0.0310147 0.169181 0)
(-0.0471285 0.197486 0)
(-0.0642495 0.217458 0)
(-0.0815166 0.229773 0)
(-0.098255 0.235233 0)
(-0.113987 0.234693 0)
(-0.128407 0.229001 0)
(-0.141353 0.218957 0)
(-0.152771 0.205286 0)
(-0.162687 0.188625 0)
(-0.17118 0.169523 0)
(-0.178358 0.148439 0)
(-0.184341 0.125754 0)
(-0.189248 0.101783 0)
(-0.193181 0.076783 0)
(-0.196222 0.0509682 0)
(-0.198421 0.0245252 0)
(-0.199797 -0.00237412 0)
(-0.20033 -0.0295574 0)
(-0.199962 -0.0568365 0)
(-0.198595 -0.0839911 0)
(-0.196094 -0.110752 0)
(-0.192292 -0.136785 0)
(-0.186995 -0.161669 0)
(-0.180001 -0.184888 0)
(-0.171114 -0.205808 0)
(-0.160172 -0.223679 0)
(-0.147077 -0.237627 0)
(-0.131842 -0.246674 0)
(-0.114628 -0.249769 0)
(-0.0957982 -0.245833 0)
(-0.0759525 -0.233843 0)
(-0.0559609 -0.212918 0)
(-0.036938 -0.182433 0)
(-0.0201958 -0.142119 0)
(-0.00750402 -0.0921515 0)
(-0.00121914 -0.0332577 0)
(-0.00112801 0.034652 0)
(-0.00686471 0.0947901 0)
(-0.0183375 0.144873 0)
(-0.0333194 0.184653 0)
(-0.0501775 0.214422 0)
(-0.0677561 0.234835 0)
(-0.0851182 0.246792 0)
(-0.101567 0.251317 0)
(-0.116648 0.249464 0)
(-0.130109 0.242251 0)
(-0.14186 0.23061 0)
(-0.151924 0.215363 0)
(-0.160409 0.197214 0)
(-0.167468 0.176749 0)
(-0.173275 0.154448 0)
(-0.178012 0.130691 0)
(-0.181843 0.105779 0)
(-0.184913 0.0799479 0)
(-0.187336 0.0533823 0)
(-0.189186 0.0262331 0)
(-0.190499 -0.00136731 0)
(-0.191264 -0.0292889 0)
(-0.191424 -0.0573871 0)
(-0.190871 -0.0854852 0)
(-0.189452 -0.113355 0)
(-0.186966 -0.140696 0)
(-0.183175 -0.167115 0)
(-0.177812 -0.192102 0)
(-0.170601 -0.215012 0)
(-0.161284 -0.235048 0)
(-0.149658 -0.251254 0)
(-0.135619 -0.262521 0)
(-0.119223 -0.267611 0)
(-0.100748 -0.265215 0)
(-0.0807516 -0.254028 0)
(-0.060126 -0.232874 0)
(-0.0400847 -0.20084 0)
(-0.0221217 -0.157424 0)
(-0.00829966 -0.102659 0)
(-0.00136825 -0.0372742 0)
(-0.00125993 0.0383198 0)
(-0.00755809 0.104295 0)
(-0.0199838 0.158574 0)
(-0.0359369 0.200957 0)
(-0.0535154 0.231927 0)
(-0.0714084 0.252406 0)
(-0.088606 0.263582 0)
(-0.104408 0.266758 0)
(-0.11841 0.26323 0)
(-0.130442 0.254207 0)
(-0.140511 0.240767 0)
(-0.148745 0.22383 0)
(-0.155344 0.204164 0)
(-0.160549 0.182385 0)
(-0.164611 0.158979 0)
(-0.167771 0.134319 0)
(-0.170248 0.108682 0)
(-0.172227 0.0822735 0)
(-0.173853 0.0552393 0)
(-0.175227 0.0276874 0)
(-0.176403 -0.000296648 0)
(-0.17738 -0.0286329 0)
(-0.178105 -0.057229 0)
(-0.178467 -0.0859617 0)
(-0.178296 -0.114655 0)
(-0.177365 -0.143059 0)
(-0.175392 -0.170821 0)
(-0.172047 -0.197458 0)
(-0.166971 -0.222332 0)
(-0.159799 -0.244618 0)
(-0.150202 -0.263288 0)
(-0.137935 -0.277106 0)
(-0.122911 -0.284638 0)
(-0.105278 -0.284307 0)
(-0.085512 -0.274477 0)
(-0.0644927 -0.253593 0)
(-0.0435208 -0.220362 0)
(-0.0242911 -0.173948 0)
(-0.00921961 -0.114173 0)
(-0.00154587 -0.0417329 0)
(-0.0014269 0.0423828 0)
(-0.00840812 0.114681 0)
(-0.0219461 0.173297 0)
(-0.0389545 0.218116 0)
(-0.0571966 0.249897 0)
(-0.0751895 0.269932 0)
(-0.091864 0.279789 0)
(-0.106549 0.281114 0)
(-0.11893 0.275491 0)
(-0.128957 0.264345 0)
(-0.136769 0.248905 0)
(-0.142619 0.230189 0)
(-0.146822 0.209012 0)
(-0.149715 0.186011 0)
(-0.151628 0.161665 0)
(-0.152866 0.136324 0)
(-0.153698 0.110231 0)
(-0.154348 0.0835502 0)
(-0.154993 0.0563811 0)
(-0.155757 0.028782 0)
(-0.156711 0.000784879 0)
(-0.157868 -0.0275865 0)
(-0.159182 -0.0562992 0)
(-0.160543 -0.0852923 0)
(-0.161774 -0.114454 0)
(-0.162627 -0.143597 0)
(-0.162783 -0.172429 0)
(-0.161857 -0.200518 0)
(-0.159408 -0.227253 0)
(-0.154959 -0.25181 0)
(-0.148038 -0.273112 0)
(-0.138232 -0.289807 0)
(-0.125266 -0.300265 0)
(-0.109109 -0.302614 0)
(-0.0900931 -0.294826 0)
(-0.0690329 -0.274875 0)
(-0.0472871 -0.24096 0)
(-0.0267628 -0.19178 0)
(-0.0103014 -0.126824 0)
(-0.00176207 -0.0467089 0)
(-0.00164482 0.0469388 0)
(-0.0094765 0.126128 0)
(-0.0243309 0.189179 0)
(-0.0424783 0.236132 0)
(-0.0612678 0.268166 0)
(-0.0790366 0.287078 0)
(-0.0946899 0.294935 0)
(-0.10764 0.293814 0)
(-0.117716 0.285627 0)
(-0.125042 0.272036 0)
(-0.129925 0.254419 0)
(-0.132771 0.233875 0)
(-0.134021 0.211252 0)
(-0.134117 0.187184 0)
(-0.133466 0.162125 0)
(-0.132435 0.136385 0)
(-0.131337 0.110161 0)
(-0.130429 0.0835665 0)
(-0.129913 0.0566467 0)
(-0.129933 0.0294045 0)
(-0.130576 0.00181424 0)
(-0.131869 -0.0261609 0)
(-0.133778 -0.0545524 0)
(-0.1362 -0.0833678 0)
(-0.138958 -0.112569 0)
(-0.141796 -0.142046 0)
(-0.144374 -0.171585 0)
(-0.146262 -0.200826 0)
(-0.146945 -0.229222 0)
(-0.145838 -0.255978 0)
(-0.142317 -0.280007 0)
(-0.135776 -0.299869 0)
(-0.12571 -0.313753 0)
(-0.11184 -0.319477 0)
(-0.0942754 -0.314565 0)
(-0.073686 -0.296409 0)
(-0.051429 -0.262542 0)
(-0.0296169 -0.211005 0)
(-0.0116001 -0.140778 0)
(-0.00203236 -0.052302 0)
(-0.00193881 0.0521259 0)
(-0.0108538 0.138872 0)
(-0.0272813 0.206375 0)
(-0.04663 0.254968 0)
(-0.0657439 0.286458 0)
(-0.082797 0.303356 0)
(-0.0967359 0.30838 0)
(-0.107139 0.304125 0)
(-0.114061 0.292878 0)
(-0.117858 0.276541 0)
(-0.119048 0.256621 0)
(-0.118213 0.234274 0)
(-0.11593 0.21035 0)
(-0.112742 0.18545 0)
(-0.10913 0.159979 0)
(-0.105508 0.134191 0)
(-0.102223 0.108223 0)
(-0.0995536 0.0821244 0)
(-0.0977178 0.055884 0)
(-0.096873 0.0294448 0)
(-0.0971185 0.00272193 0)
(-0.0984952 -0.024383 0)
(-0.100982 -0.0519672 0)
(-0.104492 -0.0801103 0)
(-0.108861 -0.108854 0)
(-0.113841 -0.138176 0)
(-0.119086 -0.167957 0)
(-0.124143 -0.197939 0)
(-0.128445 -0.227667 0)
(-0.131311 -0.256425 0)
(-0.131971 -0.28316 0)
(-0.129607 -0.306401 0)
(-0.123444 -0.324187 0)
(-0.112886 -0.33404 0)
(-0.0977114 -0.332989 0)
(-0.0783284 -0.317729 0)
(-0.0559871 -0.284927 0)
(-0.0329618 -0.2317 0)
(-0.0131979 -0.156242 0)