/*--------------------------------*- C++ -*----------------------------------*\
| =========                 |                                                 |
| \\      /  F ield         | OpenFOAM: The Open Source CFD Toolbox           |
|  \\    /   O peration     | Version:  2206                                  |
|   \\  /    A nd           | Website:  www.openfoam.com                      |
|    \\/     M anipulation  |                                                 |
\*---------------------------------------------------------------------------*/
FoamFile
{
    version     2.0;
    format      ascii;
    arch        "LSB;label=32;scalar=64";
    class       volScalarField;
    location    "0.1";
    object      p;
}
// * * * * * * * * * * * * * * * * * * * * * * * * * * * * * * * * * * * * * //

dimensions      [0 2 -2 0 0 0 0];

internalField   nonuniform List<scalar> 
1600
(
-6.09783e-08
-0.00116955
-0.00385227
-0.00746386
-0.011343
-0.0150006
-0.0180837
-0.0203428
-0.0216118
-0.0217914
-0.0208358
-0.0187433
-0.0155473
-0.0113092
-0.00611533
-7.23974e-05
0.00669547
0.0140499
0.0218408
0.029909
0.0380887
0.0462102
0.0541021
0.0615942
0.0685209
0.0747256
0.080065
0.0844144
0.0876733
0.0897701
0.0906694
0.0903795
0.0889602
0.0865309
0.0832811
0.0794849
0.075517
0.0718798
0.0692345
0.0681397
0.00117118
-4.56167e-06
-0.00218615
-0.0049914
-0.00798404
-0.0108038
-0.0131696
-0.0148713
-0.0157607
-0.0157423
-0.0147662
-0.0128208
-0.00992667
-0.00613143
-0.00150542
0.00386132
0.00986222
0.0163772
0.0232747
0.0304146
0.0376513
0.0448355
0.0518163
0.0584444
0.064576
0.0700758
0.0748213
0.0787082
0.0816543
0.0836041
0.0845352
0.0844643
0.083453
0.0816129
0.0791113
0.0761782
0.0731114
0.0702829
0.0681365
0.0670486
0.00387289
0.00216317
-5.31081e-05
-0.00257428
-0.00516133
-0.00754798
-0.00951356
-0.0108887
-0.0115497
-0.0114139
-0.0104352
-0.00860027
-0.00592402
-0.00244609
0.00177308
0.00665513
0.0121059
0.0180183
0.0242751
0.0307505
0.0373139
0.0438307
0.0501649
0.0561823
0.0617538
0.0667591
0.0710898
0.0746538
0.0773798
0.0792211
0.0801608
0.0802165
0.0794444
0.0779422
0.075851
0.0733588
0.0707027
0.0681618
0.0659923
0.0644037
0.0075727
0.00498948
0.00238066
-0.000212453
-0.00272897
-0.00497174
-0.00676934
-0.00799155
-0.00854123
-0.0083528
-0.00738985
-0.00564291
-0.00312645
0.000123738
0.00405291
0.00858996
0.0136495
0.0191342
0.024937
0.0309433
0.0370332
0.0430826
0.0489659
0.0545596
0.0597451
0.0644115
0.0684586
0.0718016
0.0743744
0.0761336
0.0770619
0.0771727
0.0765121
0.0751607
0.0732333
0.0708796
0.06829
0.0656778
0.0631289
0.0607003
0.0116846
0.00808743
0.00491676
0.00207277
-0.000546615
-0.00279966
-0.00455651
-0.00572359
-0.00623015
-0.00602869
-0.00509499
-0.00342597
-0.00103829
0.0020332
0.00573716
0.0100075
0.0147655
0.0199215
0.0253771
0.031026
0.0367566
0.0424531
0.0479983
0.0532764
0.0581767
0.0625944
0.0664347
0.0696163
0.0720756
0.0737688
0.0746753
0.0748011
0.0741805
0.0728759
0.0709769
0.068599
0.0658946
0.0630253
0.0599209
0.056504
0.0157906
0.0111385
0.00731565
0.00410566
0.00126282
-0.00111287
-0.00292435
-0.00411063
-0.00462648
-0.004442
-0.00354525
-0.00194114
0.000349492
0.00329052
0.00683195
0.0109111
0.0154539
0.0203767
0.0255873
0.0309856
0.036466
0.0419193
0.0472343
0.052301
0.057013
0.0612694
0.0649778
0.068058
0.0704457
0.072094
0.0729767
0.0730905
0.0724567
0.0711207
0.0691489
0.0666277
0.0636799
0.0604293
0.05667
0.0522143
0.0195883
0.0138864
0.00936599
0.00571521
0.00256521
-1.38519e-05
-0.00195077
-0.00321204
-0.00377477
-0.00362614
-0.00276646
-0.00120929
0.00101902
0.00387971
0.00732242
0.0112862
0.0157002
0.0204845
0.0255509
0.0308038
0.0361421
0.041461
0.0466532
0.0516119
0.0562328
0.0604161
0.0640694
0.0671115
0.0694746
0.0711064
0.071973
0.0720607
0.0713778
0.0699538
0.0678347
0.0650827
0.0617992
0.0580828
0.0536125
0.0481125
0.022851
0.0161211
0.0108846
0.00675043
0.00324166
0.000406432
-0.0017023
-0.00307405
-0.00370566
-0.0035999
-0.00276893
-0.0012353
0.000968354
0.00379967
0.00720698
0.0111296
0.0154981
0.0202345
0.0252531
0.0304613
0.035761
0.04105
0.0462227
0.0511735
0.0557981
0.0599958
0.0636722
0.0667423
0.0691329
0.0707843
0.0716534
0.0717155
0.0709662
0.0694198
0.0671048
0.0640639
0.0603839
0.0561477
0.0509366
0.0444026
0.0254006
0.0176674
0.0117102
0.00706918
0.00317202
5.04126e-05
-0.00225669
-0.0037575
-0.00446586
-0.00439858
-0.00357948
-0.00204015
0.000180448
0.00303582
0.00647187
0.0104268
0.0148311
0.0196076
0.0246721
0.0299337
0.0352957
0.0406566
0.0459112
0.050953
0.0556762
0.0599773
0.0637578
0.0669268
0.0694036
0.0711198
0.0720219
0.0720738
0.0712578
0.0695742
0.067036
0.0636704
0.0595554
0.0547657
0.0487963
0.0412376
0.0270898
0.0183721
0.011695
0.00653628
0.00223544
-0.00118701
-0.00370328
-0.00533724
-0.0061177
-0.00607446
-0.00524233
-0.00366146
-0.00137728
0.00155885
0.00508934
0.00915037
0.0136715
0.0185756
0.023779
0.0291912
0.0347154
0.0402497
0.0456876
0.0509207
0.0558399
0.0603372
0.0643077
0.0676529
0.0702833
0.0721202
0.0730985
0.0731696
0.0723025
0.0704838
0.0677126
0.0640038
0.0594308
0.0540655
0.0473235
0.03874
0.027787
0.0180952
0.0107001
0.00501978
0.000310453
-0.00341561
-0.00613917
-0.00789829
-0.00873538
-0.00869224
-0.00781381
-0.00614864
-0.00374912
-0.000672156
0.00302068
0.00726309
0.0119832
0.0171033
0.022539
0.028199
0.0339859
0.039796
0.0455206
0.0510481
0.0562646
0.0610558
0.0653089
0.0689164
0.0717778
0.0738028
0.0749136
0.0750478
0.0741603
0.0722239
0.0692251
0.0651683
0.0601253
0.0541686
0.046638
0.037016
0.027368
0.0167024
0.00858928
0.00238788
-0.00272707
-0.00675017
-0.00966901
-0.011535
-0.0124032
-0.0123267
-0.0113604
-0.00956152
-0.00698978
-0.00370791
0.000218441
0.00472018
0.00972355
0.0151492
0.0209115
0.0269179
0.0330693
0.0392599
0.0453778
0.0513067
0.0569269
0.0621161
0.0667526
0.0707179
0.0738994
0.0761931
0.0775066
0.0777621
0.0768996
0.0748776
0.0716703
0.0672724
0.0617557
0.0551954
0.0468554
0.0361662
0.0257085
0.0140595
0.00522525
-0.00149416
-0.00700649
-0.0113124
-0.0144056
-0.0163505
-0.0172146
-0.0170622
-0.0159585
-0.0139696
-0.0111631
-0.00760726
-0.00337205
0.00147025
0.00684343
0.0126662
0.0188512
0.0253044
0.0319247
0.0386034
0.0452248
0.0516671
0.0578033
0.0635026
0.0686327
0.0730627
0.076666
0.0793229
0.080924
0.0813746
0.080598
0.0785374
0.0751539
0.0704324
0.0644449
0.0572704
0.048095
0.036295
0.0226783
0.010027
0.000465152
-0.00676788
-0.0126648
-0.0172321
-0.0204704
-0.0224568
-0.023272
-0.0229921
-0.0216931
-0.0194508
-0.0163401
-0.0124355
-0.00781139
-0.00254366
0.00328876
0.00960257
0.0163088
0.0233117
0.030508
0.0377859
0.0450252
0.0520983
0.0588702
0.0652006
0.0709454
0.0759597
0.0801007
0.0832306
0.0852209
0.0859574
0.0853444
0.0833081
0.0797944
0.0747769
0.0683279
0.0605306
0.0504877
0.0375191
0.0181365
0.00445588
-0.00584335
-0.0135846
-0.0198487
-0.0246493
-0.0279945
-0.0299755
-0.030687
-0.0302184
-0.0286572
-0.0260892
-0.0225975
-0.0182629
-0.0131647
-0.0073826
-0.000998161
0.00590354
0.0132322
0.0208904
0.0287727
0.0367642
0.0447405
0.0525679
0.0601034
0.0671961
0.0736887
0.0794208
0.084231
0.0879611
0.0904607
0.091593
0.0912404
0.0893088
0.085726
0.0804518
0.0735579
0.0651309
0.0541834
0.0399742
0.0119281
-0.00281679
-0.013866
-0.0221083
-0.0287175
-0.0337159
-0.0371204
-0.0390382
-0.0395804
-0.0388506
-0.0369495
-0.0339739
-0.0300157
-0.0251626
-0.0194994
-0.0131094
-0.0060763
0.0015133
0.00956807
0.0179896
0.0266707
0.0354939
0.0443311
0.0530427
0.0614779
0.0694745
0.0768611
0.0834595
0.0890878
0.0935646
0.0967145
0.0983744
0.0984006
0.096674
0.0931004
0.0876227
0.0803093
0.071249
0.0593549
0.0438196
0.00388122
-0.011971
-0.0237855
-0.0325196
-0.0394459
-0.0445975
-0.0480024
-0.0497868
-0.0500804
-0.0490038
-0.0466727
-0.043196
-0.038676
-0.033208
-0.0268822
-0.0197852
-0.0120028
-0.00362232
0.00526458
0.0145593
0.0241541
0.0339302
0.0437566
0.0534889
0.062968
0.0720207
0.0804603
0.0880897
0.0947041
0.100096
0.104061
0.106405
0.106953
0.105556
0.102091
0.0964796
0.0887838
0.0790912
0.0662048
0.049245
-0.0061964
-0.0232085
-0.0358065
-0.0450198
-0.0522276
-0.0574763
-0.0608084
-0.0623731
-0.0623225
-0.0607974
-0.0579308
-0.0538464
-0.0486578
-0.0424687
-0.0353749
-0.0274662
-0.0188296
-0.00955255
0.000274167
0.0105533
0.0211782
0.0320307
0.0429782
0.0538726
0.0645476
0.0748187
0.0844841
0.0933263
0.101116
0.107615
0.112587
0.115802
0.117044
0.116128
0.112897
0.107243
0.0992167
0.0889003
0.0749734
0.0564778
-0.0185216
-0.0367573
-0.05016
-0.0598352
-0.0672779
-0.0725522
-0.0757199
-0.0769585
-0.0764474
-0.074352
-0.0708262
-0.0660111
-0.0600331
-0.0530055
-0.0450297
-0.0361982
-0.0265987
-0.0163172
-0.00544204
0.00593306
0.017705
0.0297581
0.0419608
0.0541626
0.0661915
0.0778531
0.0889303
0.0991849
0.108361
0.116187
0.122389
0.126692
0.128836
0.128589
0.125749
0.120171
0.111885
0.100964
0.0859477
0.0657912
-0.0333407
-0.0528776
-0.0671091
-0.0772214
-0.0848379
-0.0900459
-0.0929334
-0.0937132
-0.092599
-0.0897863
-0.0854549
-0.079766
-0.0728614
-0.0648646
-0.055883
-0.0460113
-0.0353364
-0.0239411
-0.0119087
0.000673185
0.0137077
0.0270848
0.0406764
0.0543325
0.0678779
0.08111
0.0937978
0.105682
0.116479
0.125882
0.13357
0.13922
0.142515
0.143165
0.140914
0.135563
0.127114
0.115623
0.0994698
0.0775125
-0.0509359
-0.0718702
-0.0869577
-0.0974721
-0.105181
-0.110203
-0.112662
-0.112815
-0.110921
-0.107213
-0.1019
-0.0951704
-0.0871822
-0.0780704
-0.0679483
-0.0569121
-0.0450458
-0.0324266
-0.0191295
-0.00523293
0.00917608
0.0239965
0.0391075
0.0543636
0.0695897
0.0845783
0.0990867
0.112836
0.125513
0.136771
0.146242
0.15354
0.158284
0.160113
0.158696
0.153768
0.14529
0.133285
0.115949
0.0920343
-0.0716354
-0.0940881
-0.110063
-0.120928
-0.128618
-0.133296
-0.135134
-0.134449
-0.131554
-0.12673
-0.120226
-0.112259
-0.103006
-0.0926163
-0.0812072
-0.068875
-0.0556985
-0.0417457
-0.02708
-0.0117665
0.00412194
0.0204977
0.037252
0.0542487
0.0713179
0.0882516
0.104799
0.120664
0.135503
0.148931
0.160521
0.169822
0.176373
0.179724
0.17945
0.175199
0.166869
0.154436
0.135878
0.109829
-0.0958268
-0.119953
-0.136848
-0.14799
-0.155509
-0.159631
-0.160596
-0.158799
-0.154625
-0.148415
-0.140467
-0.131029
-0.120305
-0.108454
-0.0955989
-0.0818326
-0.0672254
-0.0518322
-0.0357003
-0.0188764
-0.00141447
0.0166171
0.0351274
0.0539958
0.0730641
0.0921298
0.110939
0.129183
0.146491
0.162435
0.176531
0.188249
0.197034
0.202326
0.203585
0.20034
0.192398
0.179663
0.159855
0.131467
-0.123978
-0.149977
-0.16783
-0.179137
-0.186272
-0.189552
-0.18931
-0.186048
-0.180244
-0.172314
-0.162614
-0.151432
-0.138998
-0.125482
-0.111009
-0.0956649
-0.0795072
-0.0625726
-0.0448866
-0.0264722
-0.00735803
0.0124132
0.0327758
0.053632
0.0748431
0.0962199
0.117514
0.138408
0.158511
0.177354
0.194392
0.209008
0.220538
0.22829
0.231572
0.22976
0.222532
0.209679
0.188607
0.157645
-0.156665
-0.1848
-0.203642
-0.214947
-0.221397
-0.223442
-0.221551
-0.216366
-0.208487
-0.198424
-0.186601
-0.173354
-0.158937
-0.14353
-0.127256
-0.110188
-0.0923646
-0.0737973
-0.0544841
-0.0344173
-0.013593
0.00797955
0.0302678
0.0532059
0.0766838
0.100536
0.124528
0.148347
0.171588
0.193748
0.214218
0.232292
0.247178
0.258025
0.263954
0.264134
0.25806
0.245358
0.223033
0.18922
-0.194618
-0.225232
-0.245083
-0.256129
-0.261463
-0.261732
-0.257599
-0.249896
-0.239379
-0.226674
-0.212285
-0.196598
-0.17989
-0.162347
-0.14408
-0.125144
-0.105549
-0.085274
-0.0642813
-0.0425245
-0.0199594
0.00344679
0.0277038
0.0527879
0.0786288
0.105097
0.131985
0.158998
0.18573
0.211652
0.236103
0.25828
0.277252
0.29198
0.30135
0.304258
0.299942
0.287782
0.26426
0.227259
-0.238785
-0.27233
-0.293177
-0.303564
-0.307155
-0.304896
-0.297726
-0.286731
-0.272865
-0.256896
-0.239417
-0.22086
-0.201522
-0.181582
-0.161131
-0.140192
-0.118737
-0.0967034
-0.0740071
-0.0505548
-0.0262527
-0.00101742
0.0252133
0.0524685
0.0807307
0.10992
0.139875
0.170334
0.20091
0.231067
0.260102
0.287123
0.311051
0.330631
0.344456
0.351071
0.349353
0.33831
0.31372
0.273118
-0.290437
-0.327507
-0.349258
-0.358355
-0.359285
-0.353447
-0.34217
-0.32688
-0.308779
-0.288795
-0.267613
-0.245708
-0.223375
-0.200774
-0.177959
-0.154904
-0.13153
-0.10772
-0.0833335
-0.0582206
-0.0322287
-0.00521408
0.0229479
0.0523508
0.0830435
0.115013
0.148163
0.182289
0.217049
0.251928
0.286204
0.318913
0.348829
0.374458
0.394044
0.405679
0.407735
0.398667
0.373264
0.328551
-0.351332
-0.392698
-0.415099
-0.421896
-0.418804
-0.407909
-0.391092
-0.370218
-0.346787
-0.3219
-0.296324
-0.27055
-0.244853
-0.219343
-0.19401
-0.168764
-0.143455
-0.117898
-0.0918845
-0.0651968
-0.0376147
-0.00892496
0.0210689
0.0525367
0.0856082
0.120356
0.156771
0.194737
0.233989
0.274071
0.314284
0.353627
0.390747
0.423903
0.450935
0.469361
0.476866
0.471077
0.445348
0.395895
-0.423996
-0.470619
-0.493082
-0.495942
-0.486797
-0.468768
-0.444497
-0.416402
-0.386317
-0.355507
-0.324784
-0.294614
-0.265205
-0.236578
-0.208632
-0.18118
-0.153983
-0.12677
-0.0992544
-0.0711393
-0.0421288
-0.0119325
0.0197269
0.0531064
0.0884306
0.125877
0.16555
0.207455
0.251448
0.297186
0.344049
0.391062
0.436799
0.479291
0.515942
0.54357
0.558934
0.558443
0.533302
0.478361
-0.512191
-0.565184
-0.586442
-0.58268
-0.564434
-0.536363
-0.502113
-0.46476
-0.426469
-0.388611
-0.351971
-0.316915
-0.283515
-0.251651
-0.221084
-0.1915
-0.162547
-0.133852
-0.105034
-0.0757128
-0.0455083
-0.0140473
0.0190349
0.0540912
0.0914543
0.131424
0.174248
0.220088
0.268975
0.320745
0.374947
0.430727
0.486683
0.540701
0.58976
0.629875
0.656604
0.664593
0.641765
0.580551
-0.621789
-0.682162
-0.699581
-0.684759
-0.652842
-0.610688
-0.563193
-0.514122
-0.465885
-0.419826
-0.376565
-0.336247
-0.298713
-0.26363
-0.230567
-0.199048
-0.168582
-0.138676
-0.108849
-0.0786269
-0.0475442
-0.0151422
0.019035
0.0554414
0.0945271
0.136731
0.182468
0.232097
0.285884
0.343928
0.40606
0.471692
0.539618
0.607747
0.67275
0.729815
0.773041
0.794596
0.777372
0.709384
-0.762403
-0.830227
-0.838433
-0.805207
-0.75281
-0.691055
-0.626213
-0.562597
-0.50261
-0.447305
-0.396913
-0.351182
-0.309596
-0.271519
-0.23627
-0.203171
-0.17157
-0.140844
-0.110402
-0.0796774
-0.0481206
-0.0151884
0.0196643
0.056993
0.097369
0.141381
0.189629
0.242713
0.301191
0.365525
0.435969
0.512404
0.594082
0.679247
0.764567
0.844582
0.911806
0.95513
0.949843
0.875852
-0.950716
-1.02264
-1.01073
-0.946996
-0.864143
-0.775488
-0.688412
-0.607268
-0.533916
-0.468666
-0.411022
-0.360102
-0.31488
-0.274317
-0.237426
-0.203295
-0.171095
-0.140069
-0.109518
-0.0787881
-0.0472517
-0.0142896
0.0207241
0.0584393
0.099544
0.144778
0.194941
0.250897
0.313559
0.383846
0.462605
0.550441
0.647441
0.752696
0.863491
0.974307
1.07637
1.15472
1.17372
1.09858
-1.21723
-1.27971
-1.22559
-1.11167
-0.984253
-0.859612
-0.745046
-0.643758
-0.556089
-0.480916
-0.416565
-0.361248
-0.313264
-0.271087
-0.233381
-0.198986
-0.166896
-0.136227
-0.106185
-0.076043
-0.0451096
-0.012706
0.0218587
0.0593122
0.100444
0.146135
0.197379
0.255315
0.321244
0.396632
0.483078
0.582205
0.695422
0.823424
0.965196
1.11651
1.26861
1.40322
1.4708
1.41091
-1.61791
-1.63107
-1.49171
-1.29693
-1.10616
-0.935336
-0.788695
-0.665965
-0.564419
-0.480573
-0.411052
-0.352889
-0.303586
-0.261085
-0.223697
-0.190031
-0.158927
-0.129398
-0.100583
-0.0717046
-0.0420321
-0.0108512
0.0225686
0.0590072
0.0993288
0.144523
0.195753
0.254411
0.322184
0.40112
0.493695
0.602822
0.731776
0.883839
1.06137
1.264
1.48626
1.70982
1.87209
1.87249
-2.25475
-2.11608
-1.81381
-1.49469
-1.21777
-0.990924
-0.809876
-0.66695
-0.554139
-0.464524
-0.392557
-0.333922
-0.285299
-0.244133
-0.208439
-0.176653
-0.147512
-0.119974
-0.0931454
-0.0662354
-0.0385066
-0.00924007
0.0223027
0.056918
0.0955038
0.139112
0.189018
0.246803
0.314479
0.394634
0.490636
0.606861
0.74893
0.923825
1.13961
1.40399
1.72066
2.07908
2.41754
2.58889
-3.35571
-2.78387
-2.17293
-1.67606
-1.29294
-1.00618
-0.794658
-0.637825
-0.519904
-0.429751
-0.359532
-0.303706
-0.258308
-0.22046
-0.188024
-0.159371
-0.133224
-0.108548
-0.0844742
-0.0602381
-0.0351341
-0.00847498
0.0204473
0.0524022
0.0882675
0.12909
0.176165
0.231152
0.296231
0.37435
0.469571
0.587597
0.736507
0.927803
1.17782
1.50811
1.94062
2.49074
3.15812
3.79364
-5.51698
-3.66416
-2.43148
-1.7142
-1.24206
-0.922228
-0.705367
-0.554538
-0.446107
-0.365843
-0.304815
-0.257169
-0.218951
-0.1874
-0.160525
-0.13684
-0.115194
-0.0946652
-0.0744821
-0.0539707
-0.0325094
-0.00949274
0.0157033
0.0437592
0.0754555
0.111729
0.153751
0.203046
0.261657
0.332428
0.419442
0.528765
0.669682
0.856983
1.11523
1.4836
2.01545
2.8054
4.12632
6.0869
-9.2
-4.52234
-2.30697
-1.42149
-0.959486
-0.683571
-0.512972
-0.401346
-0.323709
-0.267219
-0.224681
-0.191664
-0.165262
-0.143466
-0.124825
-0.108246
-0.0928714
-0.0780091
-0.0630729
-0.0475459
-0.030949
-0.0128138
0.00734247
0.0300438
0.0558877
0.0855862
0.120023
0.160338
0.208052
0.265278
0.335079
0.422125
0.533967
0.683897
0.897549
1.22412
1.75372
2.73351
5.06367
9.86165
)
;

boundaryField
{
    movingWall
    {
        type            zeroGradient;
    }
    fixedWalls
    {
        type            zeroGradient;
    }
    frontAndBack
    {
        type            empty;
    }
}


// ************************************************************************* //
