/*--------------------------------*- C++ -*----------------------------------*\
| =========                 |                                                 |
| \\      /  F ield         | OpenFOAM: The Open Source CFD Toolbox           |
|  \\    /   O peration     | Version:  2206                                  |
|   \\  /    A nd           | Website:  www.openfoam.com                      |
|    \\/     M anipulation  |                                                 |
\*---------------------------------------------------------------------------*/
FoamFile
{
    version     2.0;
    format      ascii;
    arch        "LSB;label=32;scalar=64";
    class       surfaceScalarField;
    location    "0.1";
    object      phi;
}
// * * * * * * * * * * * * * * * * * * * * * * * * * * * * * * * * * * * * * //

dimensions      [0 3 -1 0 0 0 0];

oriented        oriented;

internalField   nonuniform List<scalar> 
3120
(
2.51032e-09
-2.51017e-09
4.05712e-09
-1.54682e-09
2.25765e-09
1.79937e-09
-3.44263e-09
5.70034e-09
-1.28596e-08
9.417e-09
-2.54937e-08
1.2634e-08
-4.0716e-08
1.52223e-08
-5.78612e-08
1.71451e-08
-7.62717e-08
1.84106e-08
-9.53203e-08
1.90487e-08
-1.14421e-07
1.91012e-08
-1.33038e-07
1.86161e-08
-1.50682e-07
1.76441e-08
-1.66918e-07
1.62365e-08
-1.81364e-07
1.44459e-08
-1.9369e-07
1.23257e-08
-2.03619e-07
9.92946e-09
-2.1093e-07
7.31143e-09
-2.15457e-07
4.52689e-09
-2.1709e-07
1.63287e-09
-2.15778e-07
-1.31236e-09
-2.11529e-07
-4.24837e-09
-2.04418e-07
-7.11183e-09
-1.9458e-07
-9.83753e-09
-1.82221e-07
-1.23586e-08
-1.67615e-07
-1.46063e-08
-1.51104e-07
-1.65115e-08
-1.33097e-07
-1.80069e-08
-1.14069e-07
-1.9028e-08
-9.45543e-08
-1.95144e-08
-7.51424e-08
-1.94119e-08
-5.64662e-08
-1.86763e-08
-3.91902e-08
-1.72761e-08
-2.39925e-08
-1.51977e-08
-1.15373e-08
-1.24553e-08
-2.42489e-09
-9.11238e-09
2.90181e-09
-5.32669e-09
4.34045e-09
-1.43862e-09
2.54716e-09
1.7933e-09
2.5471e-09
1.59226e-09
-4.10228e-09
-1.14784e-09
1.19326e-09
-1.15156e-08
1.2167e-08
-3.05524e-08
2.47371e-08
-5.8061e-08
3.69257e-08
-9.31138e-08
4.76869e-08
-1.34383e-07
5.64918e-08
-1.80355e-07
6.31166e-08
-2.29455e-07
6.75106e-08
-2.80129e-07
6.97221e-08
-3.30887e-07
6.98593e-08
-3.80336e-07
6.80654e-08
-4.27197e-07
6.45053e-08
-4.70317e-07
5.93565e-08
-5.08676e-07
5.28048e-08
-5.41393e-07
4.50417e-08
-5.67727e-07
3.62636e-08
-5.87086e-07
2.66711e-08
-5.99029e-07
1.64699e-08
-6.03268e-07
5.87122e-09
-5.99674e-07
-4.90659e-09
-5.88283e-07
-1.56385e-08
-5.69303e-07
-2.60921e-08
-5.43113e-07
-3.6028e-08
-5.10269e-07
-4.52019e-08
-4.71508e-07
-5.33672e-08
-4.27741e-07
-6.02793e-08
-3.80047e-07
-6.57004e-08
-3.29669e-07
-6.9406e-08
-2.77991e-07
-7.11924e-08
-2.26517e-07
-7.08856e-08
-1.7684e-07
-6.83536e-08
-1.30595e-07
-6.35214e-08
-8.93986e-08
-5.6394e-08
-5.47597e-08
-4.70941e-08
-2.7943e-08
-3.59292e-08
-9.75707e-09
-2.35126e-08
-2.35037e-10
-1.09606e-08
1.8551e-09
-2.96916e-10
4.40216e-09
-1.65882e-09
-2.44355e-09
-1.19598e-08
1.14944e-08
-3.35892e-08
3.37964e-08
-6.73951e-08
5.8543e-08
-1.12971e-07
8.25011e-08
-1.6905e-07
1.03767e-07
-2.3383e-07
1.21272e-07
-3.05209e-07
1.34495e-07
-3.80955e-07
1.43257e-07
-4.58823e-07
1.47591e-07
-5.36632e-07
1.47668e-07
-6.12318e-07
1.43751e-07
-6.83967e-07
1.36155e-07
-7.49847e-07
1.25236e-07
-8.08415e-07
1.11373e-07
-8.58336e-07
9.49631e-08
-8.9849e-07
7.64173e-08
-9.27977e-07
5.61587e-08
-9.4613e-07
3.46229e-08
-9.52518e-07
1.22583e-08
-9.46951e-07
-1.04728e-08
-9.29496e-07
-3.30938e-08
-9.00474e-07
-5.51139e-08
-8.60471e-07
-7.6031e-08
-8.10338e-07
-9.53351e-08
-7.5119e-07
-1.12515e-07
-6.84404e-07
-1.27065e-07
-6.11604e-07
-1.38501e-07
-5.34642e-07
-1.46368e-07
-4.55572e-07
-1.50263e-07
-3.76608e-07
-1.49849e-07
-3.00073e-07
-1.44889e-07
-2.2832e-07
-1.35274e-07
-1.63641e-07
-1.21073e-07
-1.08133e-07
-1.02602e-07
-6.35211e-08
-8.05409e-08
-3.09175e-08
-5.61161e-08
-1.05135e-08
-3.13646e-08
-1.20528e-09
-9.60518e-09
3.19691e-09
-5.50434e-09
3.06075e-09
-2.46286e-08
3.06187e-08
-5.87908e-08
6.79585e-08
-1.08164e-07
1.07916e-07
-1.71871e-07
1.46209e-07
-2.48233e-07
1.80128e-07
-3.35013e-07
2.08052e-07
-4.29637e-07
2.29119e-07
-5.29362e-07
2.42982e-07
-6.31407e-07
2.49636e-07
-7.33052e-07
2.49313e-07
-8.31701e-07
2.424e-07
-9.24941e-07
2.29395e-07
-1.01057e-06
2.10864e-07
-1.08662e-06
1.87427e-07
-1.1514e-06
1.59739e-07
-1.20346e-06
1.28483e-07
-1.24167e-06
9.43667e-08
-1.26517e-06
5.81205e-08
-1.27341e-06
2.04973e-08
-1.26615e-06
-1.77266e-08
-1.2435e-06
-5.57521e-08
-1.20585e-06
-9.27591e-08
-1.15397e-06
-1.2791e-07
-1.08895e-06
-1.60358e-07
-1.01221e-06
-1.89256e-07
-9.25497e-07
-2.13776e-07
-8.30875e-07
-2.33123e-07
-7.30683e-07
-2.4656e-07
-6.27506e-07
-2.5344e-07
-5.24114e-07
-2.5324e-07
-4.234e-07
-2.45603e-07
-3.28278e-07
-2.30396e-07
-2.41572e-07
-2.07779e-07
-1.6586e-07
-1.78313e-07
-1.03297e-07
-1.43104e-07
-5.53896e-08
-1.04024e-07
-2.27586e-08
-6.39958e-08
-4.90637e-09
-2.74573e-08
-1.70943e-09
-9.33976e-09
1.24005e-08
-3.76102e-08
5.88892e-08
-8.47545e-08
1.15103e-07
-1.5e-07
1.73161e-07
-2.31802e-07
2.28011e-07
-3.27959e-07
2.76285e-07
-4.35774e-07
3.15867e-07
-5.52232e-07
3.45577e-07
-6.74148e-07
3.64898e-07
-7.983e-07
3.73789e-07
-9.21529e-07
3.72542e-07
-1.04082e-06
3.61687e-07
-1.15334e-06
3.41918e-07
-1.25652e-06
3.14049e-07
-1.34807e-06
2.78972e-07
-1.42597e-06
2.37643e-07
-1.48855e-06
1.91063e-07
-1.53446e-06
1.40275e-07
-1.5627e-06
8.63539e-08
-1.57261e-06
3.04123e-08
-1.56393e-06
-2.64042e-08
-1.53677e-06
-8.29173e-08
-1.49161e-06
-1.37919e-07
-1.42934e-06
-1.90181e-07
-1.35123e-06
-2.3846e-07
-1.25897e-06
-2.81521e-07
-1.15459e-06
-3.18155e-07
-1.04051e-06
-3.47209e-07
-9.19443e-07
-3.67623e-07
-7.94413e-07
-3.7847e-07
-6.68641e-07
-3.79012e-07
-5.45486e-07
-3.68759e-07
-4.28335e-07
-3.47547e-07
-3.20476e-07
-3.15638e-07
-2.2495e-07
-2.7384e-07
-1.44376e-07
-2.23678e-07
-8.07734e-08
-1.67626e-07
-3.53962e-08
-1.09373e-07
-8.62497e-09
-5.42285e-08
-1.03344e-08
-1.29713e-08
2.53718e-08
-5.02545e-08
9.61724e-08
-1.10357e-07
1.75206e-07
-1.91453e-07
2.54257e-07
-2.91205e-07
3.27762e-07
-4.0679e-07
3.9187e-07
-5.35002e-07
4.44079e-07
-6.72371e-07
4.82946e-07
-8.15297e-07
5.07824e-07
-9.60163e-07
5.18655e-07
-1.10343e-06
5.15814e-07
-1.24174e-06
4.9999e-07
-1.37192e-06
4.72103e-07
-1.49111e-06
4.33235e-07
-1.59672e-06
3.84586e-07
-1.68653e-06
3.27445e-07
-1.75863e-06
2.6317e-07
-1.81153e-06
1.93174e-07
-1.8441e-06
1.18923e-07
-1.85562e-06
4.19273e-08
-1.84577e-06
-3.62532e-08
-1.81467e-06
-1.14017e-07
-1.76286e-06
-1.89725e-07
-1.69133e-06
-2.61709e-07
-1.6015e-06
-3.28287e-07
-1.49524e-06
-3.87787e-07
-1.37482e-06
-4.38577e-07
-1.24292e-06
-4.79104e-07
-1.1026e-06
-5.07942e-07
-9.57222e-07
-5.23851e-07
-8.1039e-07
-5.25844e-07
-6.65874e-07
-5.13274e-07
-5.27493e-07
-4.85928e-07
-3.98988e-07
-4.44143e-07
-2.8388e-07
-3.88947e-07
-1.8532e-07
-3.22238e-07
-1.05943e-07
-2.47003e-07
-4.7765e-08
-1.67551e-07
-1.21576e-08
-8.98359e-08
-2.24921e-08
-1.6363e-08
4.1735e-08
-6.23506e-08
1.4216e-07
-1.35168e-07
2.48023e-07
-2.31917e-07
3.51006e-07
-3.49406e-07
4.45252e-07
-4.84125e-07
5.26589e-07
-6.323e-07
5.92253e-07
-7.8998e-07
6.40626e-07
-9.53146e-07
6.7099e-07
-1.11781e-06
6.83316e-07
-1.28009e-06
6.78096e-07
-1.43631e-06
6.56213e-07
-1.58305e-06
6.18835e-07
-1.71716e-06
5.67346e-07
-1.83585e-06
5.03282e-07
-1.9367e-06
4.28295e-07
-2.01766e-06
3.44129e-07
-2.07709e-06
2.526e-07
-2.11376e-06
1.55593e-07
-2.12688e-06
5.5051e-08
-2.11611e-06
-4.70221e-08
-2.08156e-06
-1.48568e-07
-2.02381e-06
-2.4748e-07
-1.9439e-06
-3.41617e-07
-1.84337e-06
-4.28819e-07
-1.72421e-06
-5.06941e-07
-1.5889e-06
-5.73888e-07
-1.44034e-06
-6.27665e-07
-1.28184e-06
-6.6644e-07
-1.11708e-06
-6.88619e-07
-9.49989e-07
-6.9293e-07
-7.84734e-07
-6.78529e-07
-6.25553e-07
-6.4511e-07
-4.76655e-07
-5.93041e-07
-3.42085e-07
-5.23517e-07
-2.25589e-07
-4.38734e-07
-1.30499e-07
-3.42093e-07
-5.96654e-08
-2.38385e-07
-1.54695e-08
-1.34032e-07
-3.79615e-08
-1.95482e-08
6.12832e-08
-7.39129e-08
1.96525e-07
-1.59137e-07
3.33247e-07
-2.71288e-07
4.63158e-07
-4.06294e-07
5.80258e-07
-5.5991e-07
6.80204e-07
-7.27749e-07
7.60092e-07
-9.05352e-07
8.18229e-07
-1.08826e-06
8.53903e-07
-1.27213e-06
8.67177e-07
-1.45274e-06
8.58709e-07
-1.62614e-06
8.29617e-07
-1.78867e-06
7.81359e-07
-1.93697e-06
7.15649e-07
-2.06808e-06
6.34389e-07
-2.1794e-06
5.39622e-07
-2.26877e-06
4.33502e-07
-2.33445e-06
3.18273e-07
-2.37511e-06
1.9626e-07
-2.38993e-06
6.98624e-08
-2.3785e-06
-5.84491e-08
-2.34093e-06
-1.86136e-07
-2.27781e-06
-3.10601e-07
-2.19023e-06
-4.29199e-07
-2.07978e-06
-5.39267e-07
-1.94857e-06
-6.38149e-07
-1.79921e-06
-7.23251e-07
-1.63478e-06
-7.92098e-07
-1.45881e-06
-8.42407e-07
-1.27524e-06
-8.72183e-07
-1.08835e-06
-8.79819e-07
-9.02668e-07
-8.64215e-07
-7.22858e-07
-8.2492e-07
-5.53633e-07
-7.62267e-07
-3.99607e-07
-6.77542e-07
-2.65185e-07
-5.73157e-07
-1.54455e-07
-4.52823e-07
-7.11378e-08
-3.21702e-07
-1.8599e-08
-1.86571e-07
-5.65604e-08
-2.25792e-08
8.38624e-08
-8.50517e-08
2.58997e-07
-1.82413e-07
4.30609e-07
-3.09738e-07
5.90482e-07
-4.62071e-07
7.3259e-07
-6.34406e-07
8.52539e-07
-8.21712e-07
9.47398e-07
-1.01899e-06
1.01551e-06
-1.22133e-06
1.05625e-06
-1.424e-06
1.06985e-06
-1.62249e-06
1.0572e-06
-1.81257e-06
1.0197e-06
-1.99037e-06
9.59157e-07
-2.15236e-06
8.77639e-07
-2.29542e-06
7.77448e-07
-2.41684e-06
6.61043e-07
-2.51435e-06
5.31011e-07
-2.58612e-06
3.90041e-07
-2.63077e-06
2.40914e-07
-2.64741e-06
8.6498e-08
-2.6356e-06
-7.02546e-08
-2.59543e-06
-2.26311e-07
-2.52747e-06
-3.78565e-07
-2.43281e-06
-5.23852e-07
-2.3131e-06
-6.58976e-07
-2.17051e-06
-7.80746e-07
-2.00773e-06
-8.86031e-07
-1.82799e-06
-9.71832e-07
-1.63503e-06
-1.03537e-06
-1.43302e-06
-1.07419e-06
-1.22656e-06
-1.08629e-06
-1.02053e-06
-1.07024e-06
-8.20078e-07
-1.02537e-06
-6.30438e-07
-9.51907e-07
-4.56846e-07
-8.51134e-07
-3.04416e-07
-7.25586e-07
-1.78043e-07
-5.79196e-07
-8.23333e-08
-4.17412e-07
-2.16106e-08
-2.47293e-07
-7.81711e-08
-2.55132e-08
1.09375e-07
-9.59116e-08
3.29396e-07
-2.05222e-07
5.39919e-07
-3.47562e-07
7.32823e-07
-5.17096e-07
9.02124e-07
-7.08038e-07
1.04348e-06
-9.14687e-07
1.15405e-06
-1.13148e-06
1.23229e-06
-1.35303e-06
1.2778e-06
-1.57424e-06
1.29105e-06
-1.79028e-06
1.27323e-06
-1.99668e-06
1.22611e-06
-2.18937e-06
1.15185e-06
-2.36467e-06
1.05294e-06
-2.51935e-06
9.32124e-07
-2.65059e-06
7.92291e-07
-2.75606e-06
6.36479e-07
-2.83386e-06
4.67836e-07
-2.88255e-06
2.89609e-07
-2.90119e-06
1.05139e-07
-2.88931e-06
-8.21335e-08
-2.84695e-06
-2.68677e-07
-2.77465e-06
-4.50867e-07
-2.67349e-06
-6.25008e-07
-2.54512e-06
-7.87351e-07
-2.39172e-06
-9.34143e-07
-2.21606e-06
-1.06168e-06
-2.02149e-06
-1.16641e-06
-1.81189e-06
-1.24498e-06
-1.59166e-06
-1.29441e-06
-1.3657e-06
-1.31225e-06
-1.1393e-06
-1.29664e-06
-9.18052e-07
-1.24662e-06
-7.0778e-07
-1.16218e-06
-5.14384e-07
-1.04453e-06
-3.43741e-07
-8.96229e-07
-2.01588e-07
-7.21349e-07
-9.34461e-08
-5.25554e-07
-2.4575e-08
-3.16164e-07
-1.02746e-07
-2.84017e-08
1.37777e-07
-1.06641e-07
4.07635e-07
-2.27814e-07
6.61093e-07
-3.85102e-07
8.9011e-07
-5.71786e-07
1.08881e-06
-7.81285e-07
1.25298e-06
-1.00721e-06
1.37997e-06
-1.2434e-06
1.46849e-06
-1.484e-06
1.51841e-06
-1.72352e-06
1.53057e-06
-1.95682e-06
1.50654e-06
-2.17922e-06
1.44851e-06
-2.38646e-06
1.35909e-06
-2.57475e-06
1.24123e-06
-2.74075e-06
1.09812e-06
-2.88159e-06
9.33133e-07
-2.99488e-06
7.49764e-07
-3.07867e-06
5.51626e-07
-3.13149e-06
3.42433e-07
-3.15235e-06
1.26001e-07
-3.14074e-06
-9.37501e-08
-3.09662e-06
-3.12789e-07
-3.02051e-06
-5.26977e-07
-2.91344e-06
-7.32078e-07
-2.77701e-06
-9.23781e-07
-2.61341e-06
-1.09775e-06
-2.42542e-06
-1.24967e-06
-2.21645e-06
-1.37537e-06
-1.99053e-06
-1.4709e-06
-1.75227e-06
-1.53268e-06
-1.50685e-06
-1.55767e-06
-1.25995e-06
-1.54354e-06
-1.01768e-06
-1.48889e-06
-7.86449e-07
-1.39341e-06
-5.72887e-07
-1.25809e-06
-3.8368e-07
-1.08544e-06
-2.25457e-07
-8.79571e-07
-1.04682e-07
-6.4633e-07
-2.75607e-08
-3.93285e-07
-1.30307e-07
-3.12917e-08
1.69069e-07
-1.17378e-07
4.9372e-07
-2.50432e-07
7.94148e-07
-4.22696e-07
1.06237e-06
-6.26555e-07
1.29267e-06
-8.54615e-07
1.48104e-06
-1.09977e-06
1.62512e-06
-1.35526e-06
1.72398e-06
-1.61474e-06
1.77789e-06
-1.87232e-06
1.78814e-06
-2.12258e-06
1.75681e-06
-2.36063e-06
1.68655e-06
-2.58205e-06
1.58051e-06
-2.78295e-06
1.44213e-06
-2.95995e-06
1.27512e-06
-3.11013e-06
1.08332e-06
-3.23107e-06
8.70709e-07
-3.32082e-06
6.41372e-07
-3.37787e-06
3.99482e-07
-3.40118e-06
1.49316e-07
-3.3902e-06
-1.04736e-07
-3.34483e-06
-3.58159e-07
-3.2655e-06
-6.06306e-07
-3.15317e-06
-8.44406e-07
-3.00937e-06
-1.06758e-06
-2.83623e-06
-1.27088e-06
-2.63653e-06
-1.44938e-06
-2.41369e-06
-1.59821e-06
-2.17184e-06
-1.71275e-06
-1.91576e-06
-1.78875e-06
-1.65093e-06
-1.8225e-06
-1.38341e-06
-1.81106e-06
-1.11982e-06
-1.75247e-06
-8.67239e-07
-1.64599e-06
-6.33033e-07
-1.4923e-06
-4.24766e-07
-1.2937e-06
-2.50018e-07
-1.05432e-06
-1.16242e-07
-7.80106e-07
-3.06326e-08
-4.78895e-07
-1.60939e-07
-3.4223e-08
2.03292e-07
-1.28247e-07
5.87745e-07
-2.73301e-07
9.39201e-07
-4.6066e-07
1.24973e-06
-6.81788e-07
1.51379e-06
-9.28447e-07
1.7277e-06
-1.19279e-06
1.88947e-06
-1.46745e-06
1.99863e-06
-1.74558e-06
2.05602e-06
-2.0209e-06
2.06346e-06
-2.28772e-06
2.02362e-06
-2.54094e-06
1.93977e-06
-2.77605e-06
1.81562e-06
-2.98909e-06
1.65518e-06
-3.17666e-06
1.46268e-06
-3.33584e-06
1.24249e-06
-3.46421e-06
9.99082e-07
-3.55982e-06
7.36984e-07
-3.62116e-06
4.60823e-07
-3.64717e-06
1.7532e-07
-3.63721e-06
-1.14691e-07
-3.59114e-06
-4.04233e-07
-3.50927e-06
-6.88174e-07
-3.39246e-06
-9.61219e-07
-3.24211e-06
-1.21792e-06
-3.06027e-06
-1.45273e-06
-2.84963e-06
-1.66002e-06
-2.61359e-06
-1.83424e-06
-2.35633e-06
-1.97001e-06
-2.08279e-06
-2.06229e-06
-1.79868e-06
-2.10661e-06
-1.51046e-06
-2.09928e-06
-1.22529e-06
-2.03765e-06
-9.50895e-07
-1.92039e-06
-6.95473e-07
-1.74772e-06
-4.67516e-07
-1.52166e-06
-2.75625e-07
-1.24621e-06
-1.2832e-07
-9.2741e-07
-3.38512e-08
-5.73363e-07
-1.94791e-07
-3.72306e-08
2.40522e-07
-1.39362e-07
6.89876e-07
-2.96622e-07
1.09646e-06
-4.99275e-07
1.45239e-06
-7.37817e-07
1.75234e-06
-1.00313e-06
1.99301e-06
-1.2866e-06
2.17294e-06
-1.58023e-06
2.29226e-06
-1.87666e-06
2.35245e-06
-2.16925e-06
2.35605e-06
-2.45205e-06
2.30642e-06
-2.7198e-06
2.20753e-06
-2.96792e-06
2.06374e-06
-3.19244e-06
1.87969e-06
-3.38997e-06
1.6602e-06
-3.55764e-06
1.41016e-06
-3.69308e-06
1.13452e-06
-3.79437e-06
8.38276e-07
-3.86002e-06
5.2647e-07
-3.88893e-06
2.04234e-07
-3.88044e-06
-1.23184e-07
-3.83429e-06
-4.50386e-07
-3.75068e-06
-7.71784e-07
-3.63031e-06
-1.08159e-06
-3.47443e-06
-1.3738e-06
-3.28493e-06
-1.64223e-06
-3.06436e-06
-1.8806e-06
-2.81604e-06
-2.08256e-06
-2.54414e-06
-2.24191e-06
-2.25368e-06
-2.35275e-06
-1.9506e-06
-2.40969e-06
-1.64173e-06
-2.40815e-06
-1.33474e-06
-2.34463e-06
-1.03808e-06
-2.21705e-06
-7.60808e-07
-2.02499e-06
-5.12413e-07
-1.77006e-06
-3.02614e-07
-1.45601e-06
-1.41097e-07
-1.08893e-06
-3.72726e-08
-6.77188e-07
-2.32063e-07
-4.0346e-08
2.80869e-07
-1.50822e-07
8.00352e-07
-3.20578e-07
1.26622e-06
-5.38791e-07
1.6706e-06
-7.94927e-07
2.00847e-06
-1.07893e-06
2.27702e-06
-1.3814e-06
2.47541e-06
-1.69367e-06
2.60453e-06
-2.0079e-06
2.66667e-06
-2.31707e-06
2.66522e-06
-2.61503e-06
2.60438e-06
-2.8964e-06
2.4889e-06
-3.15658e-06
2.32392e-06
-3.39164e-06
2.11475e-06
-3.59827e-06
1.86683e-06
-3.77371e-06
1.5856e-06
-3.91567e-06
1.27649e-06
-4.02231e-06
9.4492e-07
-4.09218e-06
5.96339e-07
-4.12419e-06
2.36241e-07
-4.1176e-06
-1.29767e-07
-4.07208e-06
-4.95912e-07
-3.98766e-06
-8.56201e-07
-3.86486e-06
-1.20438e-06
-3.70472e-06
-1.53394e-06
-3.50889e-06
-1.83807e-06
-3.27971e-06
-2.10977e-06
-3.02036e-06
-2.34191e-06
-2.73489e-06
-2.52738e-06
-2.42837e-06
-2.65928e-06
-2.10688e-06
-2.73118e-06
-1.77759e-06
-2.73744e-06
-1.44869e-06
-2.67353e-06
-1.12936e-06
-2.53638e-06
-8.29572e-07
-2.32479e-06
-5.59906e-07
-2.03972e-06
-3.31302e-07
-1.68461e-06
-1.54745e-07
-1.26548e-06
-4.09491e-08
-7.90983e-07
-2.73012e-07
-4.35987e-08
3.24467e-07
-1.62724e-07
9.19478e-07
-3.4534e-07
1.44883e-06
-5.79435e-07
1.90469e-06
-8.53357e-07
2.28239e-06
-1.15606e-06
2.57972e-06
-1.47728e-06
2.79663e-06
-1.80769e-06
2.93494e-06
-2.13896e-06
2.99794e-06
-2.46374e-06
2.99001e-06
-2.77571e-06
2.91634e-06
-3.06944e-06
2.78263e-06
-3.34037e-06
2.59485e-06
-3.58468e-06
2.35907e-06
-3.79923e-06
2.08138e-06
-3.9814e-06
1.76777e-06
-4.12908e-06
1.42417e-06
-4.24055e-06
1.05638e-06
-4.31442e-06
6.70212e-07
-4.34963e-06
2.71455e-07
-4.34542e-06
-1.33983e-07
-4.30131e-06
-5.40022e-07
-4.21718e-06
-9.40329e-07
-4.09331e-06
-1.32825e-06
-3.93046e-06
-1.69679e-06
-3.72998e-06
-2.03855e-06
-3.49392e-06
-2.34583e-06
-3.22519e-06
-2.61064e-06
-2.92766e-06
-2.8249e-06
-2.60632e-06
-2.98062e-06
-2.26734e-06
-3.07016e-06
-1.91815e-06
-3.08663e-06
-1.56747e-06
-3.02421e-06
-1.22517e-06
-2.87867e-06
-9.02229e-07
-2.64773e-06
-6.10403e-07
-2.33155e-06
-3.61987e-07
-1.93303e-06
-1.69429e-07
-1.45804e-06
-4.49323e-08
-9.15481e-07
-3.17945e-07
-4.70195e-08
3.71487e-07
-1.75166e-07
1.04762e-06
-3.71078e-07
1.64474e-06
-6.21423e-07
2.15504e-06
-9.13317e-07
2.57429e-06
-1.23463e-06
2.90103e-06
-1.5742e-06
3.1362e-06
-1.92201e-06
3.28276e-06
-2.26925e-06
3.34517e-06
-2.60829e-06
3.32906e-06
-2.9327e-06
3.24075e-06
-3.23707e-06
3.08701e-06
-3.51699e-06
2.87476e-06
-3.76883e-06
2.61091e-06
-3.98968e-06
2.30223e-06
-4.17719e-06
1.95528e-06
-4.32947e-06
1.57644e-06
-4.44497e-06
1.17189e-06
-4.52245e-06
7.4769e-07
-4.56089e-06
3.09894e-07
-4.55949e-06
-1.35383e-07
-4.51767e-06
-5.81844e-07
-4.4351e-06
-1.0229e-06
-4.31178e-06
-1.45157e-06
-4.14812e-06
-1.86044e-06
-3.9451e-06
-2.24158e-06
-3.70435e-06
-2.58657e-06
-3.42842e-06
-2.88658e-06
-3.12086e-06
-3.13246e-06
-2.78646e-06
-3.31502e-06
-2.43137e-06
-3.42525e-06
-2.06322e-06
-3.45478e-06
-1.69116e-06
-3.39628e-06
-1.32582e-06
-3.24401e-06
-9.79166e-07
-2.99438e-06
-6.64276e-07
-2.64644e-06
-3.94955e-07
-2.20235e-06
-1.85315e-07
-1.66768e-06
-4.92752e-08
-1.05152e-06
-3.6722e-07
-5.06426e-08
4.22129e-07
-1.88257e-07
1.18524e-06
-3.97976e-07
1.85446e-06
-6.64978e-07
2.42204e-06
-9.75e-07
2.88431e-06
-1.31472e-06
3.24075e-06
-1.67201e-06
3.4935e-06
-2.03617e-06
3.64691e-06
-2.3979e-06
3.70691e-06
-2.74938e-06
3.68054e-06
-3.08413e-06
3.5755e-06
-3.39688e-06
3.39976e-06
-3.68345e-06
3.16133e-06
-3.94055e-06
2.86801e-06
-4.16559e-06
2.52727e-06
-4.35658e-06
2.14627e-06
-4.51193e-06
1.73179e-06
-4.63037e-06
1.29032e-06
-4.71082e-06
8.28143e-07
-4.75236e-06
3.51439e-07
-4.75419e-06
-1.33558e-07
-4.7156e-06
-6.20436e-07
-4.63604e-06
-1.10246e-06
-4.51518e-06
-1.57243e-06
-4.35302e-06
-2.0226e-06
-4.15004e-06
-2.44456e-06
-3.90737e-06
-2.82923e-06
-3.62703e-06
-3.16692e-06
-3.31212e-06
-3.44737e-06
-2.96708e-06
-3.66006e-06
-2.59788e-06
-3.79445e-06
-2.21222e-06
-3.84044e-06
-1.81962e-06
-3.78887e-06
-1.43143e-06
-3.6322e-06
-1.06069e-06
-3.36513e-06
-7.21868e-07
-2.98526e-06
-4.30489e-07
-2.49373e-06
-2.02569e-07
-1.8956e-06
-5.40327e-08
-1.20006e-06
-4.21253e-07
-5.451e-08
4.76639e-07
-2.02127e-07
1.33286e-06
-4.26254e-07
2.07859e-06
-7.10357e-07
2.70615e-06
-1.03861e-06
3.21256e-06
-1.39636e-06
3.5985e-06
-1.77047e-06
3.86761e-06
-2.14949e-06
4.02593e-06
-2.52374e-06
4.08115e-06
-2.88523e-06
4.04203e-06
-3.22757e-06
3.91784e-06
-3.54577e-06
3.71796e-06
-3.83599e-06
3.45156e-06
-4.09541e-06
3.12742e-06
-4.32192e-06
2.75378e-06
-4.51398e-06
2.33833e-06
-4.67042e-06
1.88823e-06
-4.79031e-06
1.41021e-06
-4.87282e-06
9.10654e-07
-4.91717e-06
3.95792e-07
-4.92257e-06
-1.28158e-07
-4.88821e-06
-6.548e-07
-4.81329e-06
-1.17738e-06
-4.6971e-06
-1.68862e-06
-4.53917e-06
-2.18054e-06
-4.33937e-06
-2.64435e-06
-4.0982e-06
-3.07041e-06
-3.81699e-06
-3.44813e-06
-3.49819e-06
-3.76617e-06
-3.1457e-06
-4.01255e-06
-2.76514e-06
-4.17501e-06
-2.36411e-06
-4.24146e-06
-1.9524e-06
-4.20059e-06
-1.54198e-06
-4.04262e-06
-1.14701e-06
-3.7601e-06
-7.83494e-07
-3.34877e-06
-4.68873e-07
-2.80835e-06
-2.2137e-07
-2.14311e-06
-5.92642e-08
-1.36216e-06
-4.80517e-07
-5.86764e-08
5.35316e-07
-2.16945e-07
1.49112e-06
-4.56187e-07
2.31783e-06
-7.57874e-07
3.00783e-06
-1.10438e-06
3.55907e-06
-1.47958e-06
3.97369e-06
-1.86921e-06
4.25724e-06
-2.2611e-06
4.41783e-06
-2.64523e-06
4.46528e-06
-3.01358e-06
4.41038e-06
-3.35999e-06
4.26424e-06
-3.67987e-06
4.03784e-06
-3.96996e-06
3.74165e-06
-4.22802e-06
3.38548e-06
-4.45257e-06
2.97833e-06
-4.64266e-06
2.52842e-06
-4.79765e-06
2.04323e-06
-4.91705e-06
1.52961e-06
-5.00037e-06
9.93967e-07
-5.047e-06
4.42428e-07
-5.05622e-06
-1.18938e-07
-5.02712e-06
-6.83906e-07
-4.95863e-06
-1.24586e-06
-4.84966e-06
-1.79759e-06
-4.69914e-06
-2.33105e-06
-4.50627e-06
-2.83722e-06
-4.27075e-06
-3.30593e-06
-3.99302e-06
-3.72585e-06
-3.67472e-06
-4.08448e-06
-3.31894e-06
-4.36833e-06
-2.93072e-06
-4.56323e-06
-2.51735e-06
-4.65483e-06
-2.08866e-06
-4.62928e-06
-1.65722e-06
-4.47406e-06
-1.23826e-06
-4.17906e-06
-8.49455e-07
-3.73757e-06
-5.10411e-07
-3.14739e-06
-2.41919e-07
-2.4116e-06
-6.50388e-08
-1.53904e-06
-5.45556e-07
-6.32153e-08
5.98531e-07
-2.32935e-07
1.66084e-06
-4.8814e-07
2.57304e-06
-8.07939e-07
3.32763e-06
-1.17262e-06
3.92375e-06
-1.56436e-06
4.36544e-06
-1.96773e-06
4.6606e-06
-2.36984e-06
4.81994e-06
-2.76042e-06
4.85586e-06
-3.13159e-06
4.78155e-06
-3.47759e-06
4.61024e-06
-3.79446e-06
4.35471e-06
-4.07969e-06
4.02688e-06
-4.33182e-06
3.63761e-06
-4.55018e-06
3.19669e-06
-4.73455e-06
2.71279e-06
-4.88495e-06
2.19363e-06
-5.00142e-06
1.64608e-06
-5.08389e-06
1.07643e-06
-5.13201e-06
4.90554e-07
-5.14516e-06
-1.05793e-07
-5.12234e-06
-7.06726e-07
-5.06225e-06
-1.30596e-06
-4.96332e-06
-1.89652e-06
-4.82389e-06
-2.47049e-06
-4.64233e-06
-3.01877e-06
-4.4174e-06
-3.53087e-06
-4.14849e-06
-3.99476e-06
-3.83613e-06
-4.39685e-06
-3.48236e-06
-4.72209e-06
-3.09133e-06
-4.95426e-06
-2.66971e-06
-5.07645e-06
-2.22717e-06
-5.07182e-06
-1.77665e-06
-4.92458e-06
-1.33446e-06
-4.62125e-06
-9.20039e-07
-4.15199e-06
-5.55441e-07
-3.51199e-06
-2.64448e-07
-2.70259e-06
-7.14403e-08
-1.73205e-06
-6.16996e-07
-6.82281e-08
6.66759e-07
-2.50403e-07
1.84302e-06
-5.22601e-07
2.84524e-06
-8.61093e-07
3.66612e-06
-1.2437e-06
4.30636e-06
-1.6507e-06
4.77244e-06
-2.06539e-06
5.07529e-06
-2.47423e-06
5.22879e-06
-2.86685e-06
5.24848e-06
-3.23571e-06
5.1504e-06
-3.57571e-06
4.95025e-06
-3.88377e-06
4.66278e-06
-4.15835e-06
4.30146e-06
-4.39902e-06
3.87828e-06
-4.60606e-06
3.40374e-06
-4.78018e-06
2.88691e-06
-4.92216e-06
2.33561e-06
-5.03271e-06
1.75663e-06
-5.11223e-06
1.15596e-06
-5.16074e-06
5.39059e-07
-5.17773e-06
-8.88002e-08
-5.16218e-06
-7.22273e-07
-5.11254e-06
-1.3556e-06
-5.02679e-06
-1.98227e-06
-4.90257e-06
-2.59471e-06
-4.73737e-06
-3.18397e-06
-4.52884e-06
-3.7394e-06
-4.27512e-06
-4.24848e-06
-3.97535e-06
-4.69662e-06
-3.63022e-06
-5.06722e-06
-3.24259e-06
-5.34189e-06
-2.81817e-06
-5.50088e-06
-2.3661e-06
-5.52389e-06
-1.89946e-06
-5.39122e-06
-1.43551e-06
-5.0852e-06
-9.95539e-07
-4.59196e-06
-6.04354e-07
-3.90318e-06
-2.89242e-07
-3.0177e-06
-7.85729e-08
-1.94272e-06
-6.95569e-07
-7.38564e-08
7.40616e-07
-2.69769e-07
2.03893e-06
-5.60234e-07
3.1357e-06
-9.18054e-07
4.02394e-06
-1.31812e-06
4.70643e-06
-1.73856e-06
5.19288e-06
-2.16132e-06
5.49804e-06
-2.57234e-06
5.63981e-06
-2.96137e-06
5.63751e-06
-3.32148e-06
5.51052e-06
-3.64859e-06
5.27735e-06
-3.94076e-06
4.95495e-06
-4.19773e-06
4.55843e-06
-4.42031e-06
4.10086e-06
-4.60998e-06
3.5934e-06
-4.76847e-06
3.0454e-06
-4.89751e-06
2.46465e-06
-4.99854e-06
1.85767e-06
-5.07257e-06
1.22998e-06
-5.11999e-06
5.86482e-07
-5.14053e-06
-6.82683e-08
-5.13314e-06
-7.29657e-07
-5.09607e-06
-1.39267e-06
-5.02684e-06
-2.0515e-06
-4.92238e-06
-2.69917e-06
-4.77923e-06
-3.32712e-06
-4.59378e-06
-3.92485e-06
-4.36273e-06
-4.47953e-06
-4.08356e-06
-4.97579e-06
-3.7552e-06
-5.39558e-06
-3.37883e-06
-5.71826e-06
-2.95869e-06
-5.92102e-06
-2.50294e-06
-5.97963e-06
-2.02444e-06
-5.86972e-06
-1.54115e-06
-5.56849e-06
-1.07625e-06
-5.05685e-06
-6.57625e-07
-4.32181e-06
-3.16665e-07
-3.35866e-06
-8.6572e-08
-2.17281e-06
-7.82141e-07
-8.02982e-08
8.20914e-07
-2.91611e-07
2.25024e-06
-6.01931e-07
3.44602e-06
-9.79763e-07
4.40178e-06
-1.39649e-06
5.12316e-06
-1.8278e-06
5.62418e-06
-2.25429e-06
5.92454e-06
-2.66158e-06
6.04711e-06
-3.03987e-06
6.01579e-06
-3.38327e-06
5.85392e-06
-3.68905e-06
5.58313e-06
-3.95685e-06
5.22275e-06
-4.18795e-06
4.78953e-06
-4.3847e-06
4.2976e-06
-4.54992e-06
3.75863e-06
-4.6866e-06
3.18207e-06
-4.79747e-06
2.57552e-06
-4.88483e-06
1.94503e-06
-4.95033e-06
1.29549e-06
-4.99485e-06
6.30993e-07
-5.01834e-06
-4.47693e-08
-5.01986e-06
-7.28138e-07
-4.99746e-06
-1.41507e-06
-4.94824e-06
-2.10072e-06
-4.86845e-06
-2.77897e-06
-4.75359e-06
-3.44198e-06
-4.59876e-06
-4.07968e-06
-4.39899e-06
-4.6793e-06
-4.14983e-06
-5.22495e-06
-3.84808e-06
-5.69733e-06
-3.4927e-06
-6.07364e-06
-3.08591e-06
-6.32782e-06
-2.63427e-06
-6.43127e-06
-2.14982e-06
-6.35417e-06
-1.65091e-06
-6.06741e-06
-1.1625e-06
-5.54526e-06
-7.15847e-07
-4.76846e-06
-3.4719e-07
-3.72732e-06
-9.56197e-08
-2.42438e-06
-8.77761e-07
-8.78325e-08
9.08746e-07
-3.16727e-07
2.47914e-06
-6.4889e-07
3.77818e-06
-1.04742e-06
4.80031e-06
-1.4795e-06
5.55523e-06
-1.91806e-06
6.06275e-06
-2.3425e-06
6.34897e-06
-2.73842e-06
6.44303e-06
-3.09697e-06
6.37434e-06
-3.41382e-06
6.17077e-06
-3.68813e-06
5.85743e-06
-3.92149e-06
5.45612e-06
-4.11713e-06
4.98517e-06
-4.27914e-06
4.45961e-06
-4.41194e-06
3.89142e-06
-4.51982e-06
3.28995e-06
-4.60667e-06
2.66236e-06
-4.67567e-06
2.01403e-06
-4.72918e-06
1.349e-06
-4.76859e-06
6.70401e-07
-4.79419e-06
-1.91678e-08
-4.80514e-06
-7.17191e-07
-4.79939e-06
-1.42082e-06
-4.7737e-06
-2.12641e-06
-4.72366e-06
-2.82901e-06
-4.6438e-06
-3.52183e-06
-4.52785e-06
-4.19563e-06
-4.36905e-06
-4.83809e-06
-4.16078e-06
-5.43322e-06
-3.8973e-06
-5.96082e-06
-3.57481e-06
-6.39613e-06
-3.19277e-06
-6.70986e-06
-2.75537e-06
-6.86867e-06
-2.27309e-06
-6.83646e-06
-1.76399e-06
-6.5765e-06
-1.2546e-06
-6.05465e-06
-7.79782e-07
-5.24328e-06
-3.81455e-07
-4.12565e-06
-1.05967e-07
-2.69987e-06
-9.83727e-07
-9.68566e-08
1.0056e-06
-3.46219e-07
2.7285e-06
-7.02699e-07
4.13466e-06
-1.12253e-06
5.22014e-06
-1.56781e-06
6.00051e-06
-2.00856e-06
6.50349e-06
-2.42317e-06
6.76358e-06
-2.79785e-06
6.81771e-06
-3.12539e-06
6.70188e-06
-3.40372e-06
6.4491e-06
-3.63446e-06
6.08817e-06
-3.8217e-06
5.64336e-06
-3.97093e-06
5.1344e-06
-4.08825e-06
4.57694e-06
-4.1798e-06
3.98297e-06
-4.25129e-06
3.36145e-06
-4.30776e-06
2.71883e-06
-4.35332e-06
2.05959e-06
-4.39104e-06
1.38673e-06
-4.42284e-06
7.02202e-07
-4.44938e-06
7.37432e-09
-4.47001e-06
-6.96566e-07
-4.48266e-06
-1.40816e-06
-4.48386e-06
-2.12521e-06
-4.46866e-06
-2.84421e-06
-4.43072e-06
-3.55978e-06
-4.36243e-06
-4.26393e-06
-4.25522e-06
-4.9453e-06
-4.10011e-06
-5.58834e-06
-3.88844e-06
-6.17249e-06
-3.61308e-06
-6.67148e-06
-3.26995e-06
-7.05299e-06
-2.85984e-06
-7.27877e-06
-2.3906e-06
-7.3057e-06
-1.87911e-06
-7.088e-06
-1.35285e-06
-6.58091e-06
-8.50411e-07
-5.74572e-06
-4.20335e-07
-4.55573e-06
-1.17966e-07
-3.00224e-06
-1.10169e-06
-1.07943e-07
1.11355e-06
-3.81613e-07
3.00217e-06
-7.65445e-07
4.5185e-06
-1.20684e-06
5.66154e-06
-1.66188e-06
6.45555e-06
-2.09758e-06
6.93919e-06
-2.49194e-06
7.15795e-06
-2.83266e-06
7.15843e-06
-3.11516e-06
6.98438e-06
-3.34051e-06
6.67445e-06
-3.51355e-06
6.26121e-06
-3.64135e-06
5.77115e-06
-3.73201e-06
5.22507e-06
-3.79384e-06
4.63877e-06
-3.83475e-06
4.02388e-06
-3.86188e-06
3.38858e-06
-3.88138e-06
2.73832e-06
-3.89822e-06
2.07644e-06
-3.91617e-06
1.40467e-06
-3.93764e-06
7.23673e-07
-3.96369e-06
3.34218e-08
-3.9939e-06
-6.66348e-07
-4.02635e-06
-1.37572e-06
-4.05744e-06
-2.09412e-06
-4.08189e-06
-2.81976e-06
-4.09266e-06
-3.54901e-06
-4.08099e-06
-4.27559e-06
-4.03659e-06
-4.9897e-06
-3.94804e-06
-5.67688e-06
-3.80354e-06
-6.31699e-06
-3.59206e-06
-6.88296e-06
-3.30508e-06
-7.33997e-06
-2.93883e-06
-7.64502e-06
-2.49709e-06
-7.74744e-06
-1.99413e-06
-7.59096e-06
-1.45741e-06
-7.11763e-06
-9.29e-07
-6.27412e-06
-4.65044e-07
-5.01968e-06
-1.32131e-07
-3.33515e-06
-1.23382e-06
-1.21932e-07
1.23548e-06
-4.25032e-07
3.30527e-06
-8.3981e-07
4.93327e-06
-1.30227e-06
6.124e-06
-1.76149e-06
6.91477e-06
-2.18179e-06
7.35949e-06
-2.54186e-06
7.51802e-06
-2.83228e-06
7.44885e-06
-3.05243e-06
7.20453e-06
-3.20764e-06
6.82966e-06
-3.30676e-06
6.36033e-06
-3.36035e-06
5.82474e-06
-3.37939e-06
5.24411e-06
-3.37446e-06
4.63383e-06
-3.35519e-06
4.00461e-06
-3.33005e-06
3.36343e-06
-3.30612e-06
2.7144e-06
-3.28913e-06
2.05945e-06
-3.28338e-06
1.39892e-06
-3.29175e-06
7.3204e-07
-3.31566e-06
5.73306e-08
-3.35501e-06
-6.26994e-07
-3.4081e-06
-1.32263e-06
-3.47145e-06
-2.03077e-06
-3.5397e-06
-2.75151e-06
-3.60541e-06
-3.4833e-06
-3.659e-06
-4.22201e-06
-3.6887e-06
-4.96e-06
-3.68083e-06
-5.68475e-06
-3.62034e-06
-6.37747e-06
-3.49191e-06
-7.01139e-06
-3.28171e-06
-7.55018e-06
-2.98002e-06
-7.94671e-06
-2.58475e-06
-8.14272e-06
-2.10556e-06
-8.07015e-06
-1.56809e-06
-7.6551e-06
-1.01715e-06
-6.82507e-06
-5.17298e-07
-5.51953e-06
-1.49224e-07
-3.70323e-06
-1.38305e-06
-1.40081e-07
1.37556e-06
-4.79439e-07
3.64463e-06
-9.29152e-07
5.38299e-06
-1.41054e-06
6.6054e-06
-1.86491e-06
7.36913e-06
-2.2549e-06
7.74948e-06
-2.56179e-06
7.82491e-06
-2.78105e-06
7.66811e-06
-2.9178e-06
7.34129e-06
-2.98291e-06
6.89476e-06
-2.99005e-06
6.36747e-06
-2.95366e-06
5.78836e-06
-2.88771e-06
5.17816e-06
-2.80493e-06
4.55105e-06
-2.71646e-06
3.91615e-06
-2.63178e-06
3.27875e-06
-2.55867e-06
2.64129e-06
-2.50332e-06
2.00409e-06
-2.47038e-06
1.36598e-06
-2.46305e-06
7.24714e-07
-2.48308e-06
7.73626e-08
-2.53073e-06
-5.79352e-07
-2.60463e-06
-1.24873e-06
-2.70168e-06
-1.93372e-06
-2.81676e-06
-2.63644e-06
-2.94247e-06
-3.35759e-06
-3.06887e-06
-4.09561e-06
-3.18326e-06
-4.84561e-06
-3.27011e-06
-5.59791e-06
-3.31134e-06
-6.33624e-06
-3.28719e-06
-7.03554e-06
-3.17781e-06
-7.65956e-06
-2.96611e-06
-8.15841e-06
-2.64191e-06
-8.46691e-06
-2.20748e-06
-8.50458e-06
-1.68388e-06
-8.17871e-06
-1.11677e-06
-7.39217e-06
-5.79526e-07
-6.05677e-06
-1.7041e-07
-4.11234e-06
-1.55346e-06
-1.64329e-07
1.53989e-06
-5.48979e-07
4.02928e-06
-1.03745e-06
5.87145e-06
-1.5324e-06
7.10035e-06
-1.96732e-06