/*--------------------------------*- C++ -*----------------------------------*\
| =========                 |                                                 |
| \\      /  F ield         | OpenFOAM: The Open Source CFD Toolbox           |
|  \\    /   O peration     | Version:  2206                                  |
|   \\  /    A nd           | Website:  www.openfoam.com                      |
|    \\/     M anipulation  |                                                 |
\*---------------------------------------------------------------------------*/
FoamFile
{
    version     2.0;
    format      ascii;
    arch        "LSB;label=32;scalar=64";
    class       volScalarField;
    location    "0.1";
    object      T;
}
// * * * * * * * * * * * * * * * * * * * * * * * * * * * * * * * * * * * * * //

dimensions      [0 0 0 1 0 0 0];

internalField   nonuniform List<scalar> 
1600
(
300
300
300
300
300
300
300
300
300
300
300
300
300
300
300
300
300
300
300
300
300
300
300
300
300
300
300
300
300
300
300
300
300
300
300
300
300
300
300
300
300
300
300
300
300
300
300
300
300
300
300
300
300
300
300
300
300
300
300
300
300
300
300
300
300
300
300
300
300
300
300
300
300
300
300
300
300
300
300
300
300
300
300
300
300
300
300
300
300
300
300
300
300
300
300
300
300
300
300
300
300
300
300
300
300
300
300
300
300
300
300
300
300
300
300
300
300
300
300
300
300
300
300
300
300
300
300
300
300
300
300
300
300
300
300
300
300
300
300
300
300
300
300
300
300
300
300
300
300
300
300
300
300
300
300
300
300
300
300
300
300
300
300
300
300
300
300
300
300
300
300
300
300
300
300
300
300
300
300
300
300
300
300
300
300
300.001
300.001
300.001
300.001
300.001
300.001
300.001
300.001
300.001
300
300
300
300
300
300
300
300
300
300
300
300
300
300
300
300
300
300
300
300
300
300
300
300
300
300
300
300.001
300.001
300.001
300.001
300.001
300.001
300.001
300.001
300.001
300.001
300.001
300.001
300.001
300.001
300.001
300.001
300
300
300
300
300
300
300
300
300
300
300
300
300
300
300
300
300
300
300
300
300
300
300.001
300.001
300.001
300.001
300.001
300.002
300.002
300.002
300.003
300.003
300.003
300.003
300.003
300.003
300.002
300.002
300.002
300.001
300.001
300.001
300
300
300
300
300
300
300
300
300
300
300
300
300
300
300
300
300
300
300.001
300.001
300.001
300.001
300.002
300.002
300.003
300.003
300.004
300.004
300.005
300.005
300.005
300.005
300.005
300.005
300.004
300.004
300.003
300.002
300.002
300.001
300
300
300
300
300
300
300
300
300
300
300
300
300
300
300
300
300
300.001
300.001
300.001
300.002
300.003
300.003
300.004
300.005
300.006
300.007
300.008
300.009
300.01
300.01
300.01
300.01
300.009
300.008
300.007
300.006
300.005
300.003
300.002
300.001
300
300
300
300
300
300
300
300
300
300
300
300
300
300
300.001
300.001
300.001
300.002
300.003
300.003
300.005
300.006
300.008
300.009
300.011
300.013
300.015
300.017
300.018
300.019
300.019
300.019
300.017
300.016
300.013
300.011
300.008
300.006
300.003
300.001
300
300
300
300
300
300
300
300
300
300
300
300
300
300.001
300.001
300.001
300.002
300.003
300.004
300.006
300.008
300.011
300.014
300.017
300.021
300.024
300.028
300.031
300.033
300.035
300.035
300.034
300.032
300.029
300.025
300.02
300.015
300.011
300.006
300.002
300
300
300
300
300
300
300
300
300
300
300
300
300.001
300.001
300.002
300.002
300.004
300.005
300.008
300.01
300.014
300.019
300.024
300.03
300.036
300.043
300.05
300.055
300.06
300.063
300.063
300.062
300.058
300.052
300.045
300.037
300.028
300.019
300.011
300.004
300
300
300
300
300
300
300
300
300
300
300
300.001
300.001
300.002
300.003
300.004
300.006
300.009
300.013
300.018
300.024
300.032
300.041
300.051
300.063
300.075
300.086
300.096
300.105
300.11
300.112
300.109
300.102
300.092
300.079
300.065
300.049
300.034
300.02
300.007
300
300
300
300
300
300
300
300
300
300
300.001
300.001
300.002
300.003
300.004
300.007
300.01
300.015
300.021
300.029
300.04
300.053
300.068
300.086
300.105
300.126
300.146
300.164
300.179
300.189
300.192
300.188
300.177
300.16
300.138
300.112
300.086
300.06
300.035
300.011
300
300
300
300
300
300
300
300
300
300.001
300.001
300.002
300.003
300.005
300.007
300.011
300.016
300.024
300.034
300.047
300.064
300.086
300.111
300.141
300.173
300.208
300.242
300.273
300.299
300.316
300.323
300.318
300.3
300.272
300.234
300.191
300.146
300.101
300.059
300.019
300
300
300
300
300
300
300
300
300.001
300.001
300.002
300.003
300.004
300.007
300.011
300.017
300.025
300.037
300.053
300.075
300.102
300.136
300.177
300.225
300.278
300.334
300.39
300.443
300.486
300.517
300.53
300.523
300.496
300.45
300.389
300.318
300.243
300.168
300.098
300.032
300
300
300
300
300
300
300
300.001
300.001
300.002
300.003
300.004
300.007
300.011
300.017
300.026
300.039
300.057
300.082
300.115
300.158
300.211
300.275
300.35
300.434
300.523
300.614
300.699
300.771
300.823
300.848
300.841
300.8
300.729
300.632
300.518
300.396
300.274
300.159
300.052
300
300
300
300
300
300
300
300.001
300.001
300.002
300.004
300.007
300.011
300.017
300.026
300.04
300.059
300.087
300.124
300.174
300.238
300.318
300.416
300.53
300.659
300.798
300.939
301.073
301.19
301.275
301.32
301.316
301.258
301.151
301.001
300.823
300.63
300.437
300.253
300.082
300
300
300
300
300
300
300.001
300.001
300.002
300.004
300.006
300.01
300.016
300.025
300.039
300.059
300.088
300.128
300.183
300.256
300.35
300.468
300.612
300.782
300.974
301.182
301.396
301.603
301.784
301.923
302
302.004
301.927
301.771
301.547
301.276
300.979
300.68
300.394
300.128
300
300
300
300
300
300.001
300.001
300.002
300.003
300.005
300.009
300.015
300.023
300.037
300.057
300.086
300.127
300.185
300.263
300.367
300.501
300.67
300.877
301.121
301.399
301.702
302.018
302.326
302.601
302.817
302.947
302.969
302.871
302.653
302.33
301.93
301.486
301.034
300.6
300.195
300
300
300
300
300.001
300.001
300.002
300.003
300.005
300.008
300.013
300.022
300.034
300.053
300.082
300.123
300.181
300.261
300.37
300.514
300.7
300.935
301.222
301.562
301.952
302.382
302.832
303.277
303.683
304.01
304.22
304.278
304.163
303.871
303.42
302.846
302.201
301.536
300.893
300.29
300
300
300
300.001
300.001
300.002
300.003
300.005
300.008
300.012
300.02
300.032
300.05
300.076
300.116
300.172
300.252
300.361
300.509
300.704
300.955
301.27
301.657
302.118
302.649
303.237
303.861
304.485
305.064
305.545
305.871
305.991
305.87
305.496
304.887
304.092
303.179
302.227
301.297
300.421
300
300
300.001
300.001
300.002
300.003
300.004
300.007
300.011
300.018
300.029
300.046
300.071
300.108
300.162
300.239
300.345
300.491
300.686
300.942
301.27
301.683
302.19
302.795
303.494
304.276
305.112
305.96
306.763
307.447
307.936
308.156
308.051
307.594
306.802
305.733
304.481
303.152
301.841
300.598
300
300.001
300.001
300.002
300.003
300.004
300.007
300.011
300.017
300.027
300.043
300.067
300.102
300.153
300.226
300.327
300.468
300.657
300.908
301.236
301.654
302.179
302.823
303.592
304.487
305.493
306.58
307.698
308.774
309.718
310.426
310.794
310.739
310.213
309.221
307.831
306.16
304.356
302.553
300.831
300
300.001
300.002
300.003
300.005
300.007
300.011
300.017
300.027
300.041
300.064
300.097
300.146
300.215
300.312
300.446
300.627
300.868
301.185
301.594
302.114
302.763
303.557
304.507
305.616
306.872
308.242
309.67
311.07
312.331
313.319
313.896
313.941
313.374
312.18
310.429
308.264
305.878
303.459
301.128
300.001
300.002
300.004
300.006
300.008
300.012
300.018
300.027
300.042
300.064
300.096
300.143
300.211
300.304
300.433
300.606
300.837
301.14
301.532
302.032
302.662
303.443
304.396
305.536
306.87
308.39
310.064
311.832
313.598
315.229
316.561
317.416
317.625
317.064
315.686
313.552
310.826
307.751
304.583
301.497
300.002
300.004
300.007
300.01
300.014
300.02
300.029
300.044
300.066
300.099
300.147
300.214
300.307
300.434
300.604
300.828
301.12
301.495
301.973
302.573
303.32
304.238
305.352
306.682
308.241
310.027
312.01
314.133
316.29
318.334
320.069
321.274
321.723
321.235
319.715
317.197
313.86
309.996
305.941
301.945
300.003
300.008
300.013
300.017
300.024
300.034
300.05
300.073
300.108
300.159
300.229
300.326
300.457
300.63
300.855
301.144
301.51
301.971
302.546
303.255
304.125
305.181
306.453
307.965
309.737
311.773
314.054
316.523
319.079
321.559
323.744
325.366
326.139
325.81
324.214
321.341
317.364
312.624
307.545
302.478
300.006
300.015
300.023
300.032
300.043
300.061
300.087
300.126
300.182
300.26
300.367
300.509
300.694
300.931
301.23
301.603
302.064
302.627
303.313
304.142
305.139
306.333
307.754
309.432
311.393
313.649
316.193
318.979
321.912
324.826
327.485
329.579
330.759
330.686
329.106
325.937
321.322
315.638
309.405
303.097
300.011
300.029
300.044
300.059
300.08
300.111
300.157
300.223
300.314
300.439
300.602
300.813
301.078
301.406
301.806
302.29
302.868
303.556
304.37
305.33
306.461
307.789
309.347
311.168
313.283
315.715
318.469
321.515
324.773
328.086
331.211
333.808
335.466
335.754
334.305
330.931
325.712
319.038
311.528
303.809
300.021
300.056
300.084
300.113
300.152
300.209
300.291
300.405
300.559
300.76
301.015
301.33
301.712
302.169
302.707
303.334
304.061
304.898
305.86
306.964
308.232
309.69
311.37
313.305
315.531
318.082
320.974
324.199
327.698
331.337
334.881
337.976
340.161
340.908
339.722
336.269
330.519
322.837
313.933
304.619
300.041
300.109
300.164
300.221
300.297
300.405
300.556
300.759
301.021
301.349
301.747
302.22
302.772
303.407
304.127
304.938
305.847
306.86
307.988
309.247
310.654
312.233
314.013
316.029
318.318
320.919
323.866
327.167
330.794
334.644
338.512
342.052
344.773
346.062
345.279
341.907
335.744
327.068
316.657
305.542
300.083
300.218
300.327
300.443
300.597
300.808
301.091
301.453
301.9
302.432
303.051
303.755
304.543
305.414
306.367
307.402
308.523
309.733
311.04
312.456
313.995
315.677
317.53
319.584
321.88
324.459
327.364
330.625
334.241
338.152
342.198
346.07
349.28
351.156
350.913
347.815
341.415
331.806
319.775
306.607
300.17
300.444
300.67
300.915
301.232
301.65
302.179
302.82
303.568
304.416
305.355
306.375
307.47
308.633
309.86
311.148
312.496
313.908
315.389
316.946
318.593
320.346
322.229
324.272
326.51
328.988
331.752
334.847
338.299
342.092
346.123
350.15
353.728
356.17
356.579
353.978
347.586
337.181
323.428
307.869
300.359
300.929
301.41
301.94
302.6
303.416
304.382
305.479
306.683
307.974
309.333
310.744
312.195
313.68
315.191
316.726
318.285
319.871
321.486
323.141
324.844
326.613
328.467
330.431
332.539
334.832
337.356
340.162
343.296
346.779
350.571
354.513
358.25
361.147
362.256
360.38
354.336
343.396
327.862
309.436
300.778
301.999
303.059
304.21
305.548
307.07
308.732
310.485
312.289
314.114
315.941
317.755
319.549
321.318
323.061
324.779
326.475
328.155
329.824
331.491
333.167
334.867
336.607
338.411
340.306
342.326
344.515
346.923
349.601
352.595
355.917
359.496
363.099
366.219
367.961
367.001
361.736
350.73
333.504
311.539
301.765
304.47
306.828
309.231
311.751
314.33
316.898
319.403
321.818
324.128
326.331
328.43
330.431
332.341
334.169
335.923
337.613
339.247
340.836
342.39
343.919
345.439
346.962
348.509
350.1
351.764
353.536
355.455
357.573
359.939
362.596
365.541
368.669
371.654
373.788
373.804
369.807
359.514
341.063
314.696
304.301
310.476
315.505
319.974
324.034
327.721
331.057
334.071
336.8
339.279
341.543
343.622
345.542
347.324
348.988
350.549
352.023
353.421
354.756
356.039
357.28
358.491
359.685
360.875
362.078
363.312
364.603
365.979
367.477
369.14
371.014
373.13
375.473
377.9
379.986
380.772
378.43
370.007
351.631
320.161
312.059
325.813
334.69
341.039
345.924
349.85
353.089
355.815
358.149
360.175
361.96
363.549
364.979
366.278
367.467
368.565
369.584
370.538
371.437
372.289
373.103
373.887
374.649
375.398
376.144
376.898
377.674
378.488
379.361
380.32
381.394
382.615
384.001
385.522
387.017
388.004
387.281
382.099
366.71
331.118
343.014
363.6
371.92
376.462
379.372
381.425
382.968
384.18
385.166
385.99
386.695
387.308
387.85
388.335
388.773
389.173
389.541
389.883
390.202
390.502
390.786
391.058
391.321
391.576
391.828
392.08
392.337
392.603
392.885
393.191
393.532
393.917
394.357
394.853
395.376
395.822
395.892
394.65
387.822
356.45
)
;

boundaryField
{
    movingWall
    {
        type            fixedValue;
        value           uniform 400;
    }
    fixedWalls
    {
        type            fixedValue;
        value           uniform 300;
    }
    frontAndBack
    {
        type            empty;
    }
}


// ************************************************************************* //
