/*--------------------------------*- C++ -*----------------------------------*\
| =========                 |                                                 |
| \\      /  F ield         | OpenFOAM: The Open Source CFD Toolbox           |
|  \\    /   O peration     | Version:  2206                                  |
|   \\  /    A nd           | Website:  www.openfoam.com                      |
|    \\/     M anipulation  |                                                 |
\*---------------------------------------------------------------------------*/
FoamFile
{
    version     2.0;
    format      ascii;
    arch        "LSB;label=32;scalar=64";
    class       volVectorField;
    location    "0.1";
    object      U;
}
// * * * * * * * * * * * * * * * * * * * * * * * * * * * * * * * * * * * * * //

dimensions      [0 1 -1 0 0 0 0];

internalField   nonuniform List<vector> 
1600
(
(5.98907e-05 -5.9764e-05 0)
(0.00015425 -5.6666e-05 0)
(0.000155721 -7.45412e-06 0)
(8.39818e-06 5.11178e-05 0)
(-0.000296019 0.000105874 0)
(-0.000741573 0.000152145 0)
(-0.00130416 0.000188577 0)
(-0.00195727 0.000215179 0)
(-0.00267411 0.00023249 0)
(-0.00342877 0.000241227 0)
(-0.0041969 0.000242176 0)
(-0.00495598 0.000236134 0)
(-0.00568548 0.00022385 0)
(-0.0063669 0.000206029 0)
(-0.00698388 0.000183365 0)
(-0.00752214 0.000156544 0)
(-0.00796957 0.000126261 0)
(-0.00831621 9.31914e-05 0)
(-0.00855425 5.80038e-05 0)
(-0.00867819 2.14033e-05 0)
(-0.00868478 -1.58887e-05 0)
(-0.00857316 -5.31288e-05 0)
(-0.00834494 -8.95256e-05 0)
(-0.00800433 -0.000124259 0)
(-0.00755815 -0.00015648 0)
(-0.00701598 -0.000185292 0)
(-0.00639012 -0.000209776 0)
(-0.00569565 -0.00022903 0)
(-0.00495029 -0.000242178 0)
(-0.00417431 -0.00024836 0)
(-0.00339024 -0.000246758 0)
(-0.00262264 -0.00023664 0)
(-0.00189763 -0.000217382 0)
(-0.00124232 -0.000188502 0)
(-0.000683932 -0.000149785 0)
(-0.000248413 -0.000101621 0)
(4.18826e-05 -4.583e-05 0)
(0.000173763 1.24875e-05 0)
(0.000159525 5.98708e-05 0)
(6.00423e-05 5.97792e-05 0)
(5.77069e-05 -0.000154762 0)
(7.15376e-05 -6.90931e-05 0)
(-0.000175264 0.000178513 0)
(-0.000759611 0.000468408 0)
(-0.00169583 0.000748066 0)
(-0.00295782 0.000992649 0)
(-0.00449784 0.00119104 0)
(-0.00625747 0.00133933 0)
(-0.00817392 0.00143743 0)
(-0.0101841 0.00148718 0)
(-0.0122266 0.0014915 0)
(-0.0142437 0.00145392 0)
(-0.0161817 0.00137828 0)
(-0.0179919 0.00126853 0)
(-0.0196307 0.00112876 0)
(-0.0210601 0.00096313 0)
(-0.0222476 0.000775829 0)
(-0.0231665 0.000571135 0)
(-0.0237961 0.000353402 0)
(-0.0241217 0.000127103 0)
(-0.024135 -0.000103144 0)
(-0.0238341 -0.000332568 0)
(-0.0232239 -0.000556219 0)
(-0.0223159 -0.00076898 0)
(-0.0211289 -0.000965602 0)
(-0.0196888 -0.00114074 0)
(-0.0180286 -0.00128906 0)
(-0.0161881 -0.00140532 0)
(-0.0142139 -0.00148456 0)
(-0.0121589 -0.00152215 0)
(-0.0100809 -0.00151404 0)
(-0.00804239 -0.00145697 0)
(-0.00610831 -0.00134879 0)
(-0.00434451 -0.00118887 0)
(-0.00281456 -0.000979027 0)
(-0.00157553 -0.000725097 0)
(-0.000671534 -0.000440292 0)
(-0.000122883 -0.00015115 0)
(9.25099e-05 8.86418e-05 0)
(6.15864e-05 0.000159942 0)
(1.06769e-05 -0.000160132 0)
(-0.000170297 0.000175265 0)
(-0.0007928 0.000800033 0)
(-0.00190181 0.00151055 0)
(-0.00349812 0.00220143 0)
(-0.00554642 0.00281413 0)
(-0.00798289 0.00331749 0)
(-0.0107274 0.0036974 0)
(-0.0136919 0.00394975 0)
(-0.0167859 0.00407643 0)
(-0.0199203 0.00408309 0)
(-0.0230098 0.0039776 0)
(-0.0259744 0.00376925 0)
(-0.0287411 0.00346821 0)
(-0.0312442 0.00308522 0)
(-0.0334261 0.00263143 0)
(-0.0352375 0.00211829 0)
(-0.036638 0.00155753 0)
(-0.0375962 0.000961215 0)
(-0.0380901 0.000341769 0)
(-0.0381071 -0.000288029 0)
(-0.0376447 -0.000914981 0)
(-0.0367107 -0.00152547 0)
(-0.0353232 -0.00210551 0)
(-0.0335108 -0.00264089 0)
(-0.0313129 -0.00311726 0)
(-0.0287795 -0.00352043 0)
(-0.0259706 -0.00383667 0)
(-0.0229562 -0.00405308 0)
(-0.0198146 -0.00415801 0)
(-0.0166317 -0.00414168 0)
(-0.0134987 -0.00399684 0)
(-0.0105101 -0.00371973 0)
(-0.00775987 -0.00331147 0)
(-0.00533726 -0.00278016 0)
(-0.00332079 -0.00214464 0)
(-0.00176962 -0.00144069 0)
(-0.000711776 -0.000730739 0)
(-0.00013585 -0.000122485 0)
(1.78242e-05 0.000179864 0)
(-4.54934e-05 -2.07306e-05 0)
(-0.000458542 0.000756373 0)
(-0.00151304 0.00190988 0)
(-0.00319212 0.00317355 0)
(-0.00546714 0.00439428 0)
(-0.00828792 0.0054786 0)
(-0.0115748 0.00637237 0)
(-0.0152293 0.00704797 0)
(-0.0191437 0.00749502 0)
(-0.0232064 0.00771424 0)
(-0.0273065 0.00771365 0)
(-0.0313372 0.00750612 0)
(-0.0351978 0.00710767 0)
(-0.0387958 0.00653645 0)
(-0.0420475 0.00581202 0)
(-0.0448796 0.00495494 0)
(-0.0472292 0.00398659 0)
(-0.0490446 0.00292902 0)
(-0.0502856 0.00180497 0)
(-0.0509242 0.000637861 0)
(-0.0509446 -0.000548156 0)
(-0.0503438 -0.00172821 0)
(-0.049132 -0.00287674 0)
(-0.0473324 -0.00396759 0)
(-0.0449819 -0.00497426 0)
(-0.0421309 -0.00587022 0)
(-0.038843 -0.00662938 0)
(-0.0351946 -0.00722668 0)
(-0.031274 -0.0076388 0)
(-0.0271801 -0.00784509 0)
(-0.0230207 -0.00782864 0)
(-0.0189099 -0.00757769 0)
(-0.0149647 -0.00708735 0)
(-0.0113012 -0.00636209 0)
(-0.00802923 -0.00541919 0)
(-0.00524556 -0.00429421 0)
(-0.00302488 -0.00304926 0)
(-0.00140898 -0.00178451 0)
(-0.00041348 -0.000657629 0)
(-3.5953e-05 6.1766e-05 0)
(-9.97242e-05 0.00027603 0)
(-0.000750512 0.00170308 0)
(-0.00225519 0.00353429 0)
(-0.00452198 0.0054652 0)
(-0.00748243 0.00730625 0)
(-0.0110658 0.00893418 0)
(-0.0151738 0.0102733 0)
(-0.0196903 0.0112824 0)
(-0.0244897 0.0119438 0)
(-0.0294429 0.0122567 0)
(-0.0344212 0.0122312 0)
(-0.0393006 0.0118857 0)
(-0.0439636 0.0112436 0)
(-0.048302 0.0103324 0)
(-0.0522179 0.00918193 0)
(-0.0556252 0.00782405 0)
(-0.0584499 0.00629204 0)
(-0.0606313 0.00462043 0)
(-0.0621223 0.00284493 0)
(-0.0628898 0.00100234 0)
(-0.0629154 -0.000869401 0)
(-0.0621956 -0.00273124 0)
(-0.0607422 -0.00454312 0)
(-0.0585829 -0.00626421 0)
(-0.0557608 -0.00785324 0)
(-0.052335 -0.0092691 0)
(-0.0483801 -0.0104715 0)
(-0.0439853 -0.0114219 0)
(-0.0392538 -0.0120848 0)
(-0.034301 -0.0124291 0)
(-0.0292522 -0.0124298 0)
(-0.0242401 -0.0120702 0)
(-0.0194007 -0.0113445 0)
(-0.0148689 -0.0102613 0)
(-0.0107728 -0.00884797 0)
(-0.0072279 -0.00715757 0)
(-0.0043272 -0.00527774 0)
(-0.00213248 -0.00334217 0)
(-0.0006968 -0.00154838 0)
(-8.82485e-05 -0.000208489 0)
(-0.000149084 0.000723571 0)
(-0.00103053 0.00301607 0)
(-0.00298307 0.00568055 0)
(-0.00583785 0.00839304 0)
(-0.00948154 0.0109388 0)
(-0.0138179 0.0131718 0)
(-0.0187272 0.0149985 0)
(-0.0240743 0.0163656 0)
(-0.0297163 0.0172494 0)
(-0.0355078 0.0176475 0)
(-0.041305 0.0175729 0)
(-0.0469691 0.0170499 0)
(-0.0523689 0.0161104 0)
(-0.0573834 0.014792 0)
(-0.0619034 0.0131363 0)
(-0.0658322 0.0111878 0)
(-0.0690872 0.0089935 0)
(-0.0716004 0.00660203 0)
(-0.073319 0.0040639 0)
(-0.0742058 0.00143122 0)
(-0.07424 -0.00124233 0)
(-0.0734178 -0.00390151 0)
(-0.0717521 -0.00648978 0)
(-0.0692734 -0.00894958 0)
(-0.06603 -0.0112229 0)
(-0.0620875 -0.0132519 0)
(-0.0575291 -0.0149803 0)
(-0.0524542 -0.0163544 0)
(-0.046978 -0.0173247 0)
(-0.0412293 -0.0178484 0)
(-0.0353483 -0.0178913 0)
(-0.0294835 -0.0174311 0)
(-0.0237878 -0.0164604 0)
(-0.0184137 -0.0149916 0)
(-0.013508 -0.0130619 0)
(-0.00920624 -0.0107403 0)
(-0.00562326 -0.00813713 0)
(-0.00284577 -0.0054137 0)
(-0.000969572 -0.00279729 0)
(-0.000135947 -0.000625295 0)
(-0.000193609 0.00131184 0)
(-0.0012945 0.00468428 0)
(-0.00368381 0.00834165 0)
(-0.00711808 0.0119522 0)
(-0.0114375 0.0152859 0)
(-0.0165173 0.0181806 0)
(-0.0222138 0.0205299 0)
(-0.0283709 0.0222715 0)
(-0.0348279 0.0233775 0)
(-0.0414238 0.0238455 0)
(-0.0480004 0.0236925 0)
(-0.054406 0.0229495 0)
(-0.0604978 0.0216579 0)
(-0.0661442 0.0198668 0)
(-0.0712264 0.0176306 0)
(-0.0756396 0.0150079 0)
(-0.0792941 0.0120603 0)
(-0.082116 0.00885223 0)
(-0.084048 0.00545037 0)
(-0.0850495 0.00192358 0)
(-0.0850977 -0.00165718 0)
(-0.0841879 -0.005219 0)
(-0.0823337 -0.00868725 0)
(-0.0795676 -0.011986 0)
(-0.0759412 -0.0150389 0)
(-0.0715252 -0.0177698 0)
(-0.0664092 -0.0201047 0)
(-0.0607008 -0.0219729 0)
(-0.0545249 -0.0233097 0)
(-0.0480216 -0.0240589 0)
(-0.0413441 -0.0241758 0)
(-0.0346553 -0.023631 0)
(-0.0281243 -0.0224146 0)
(-0.0219214 -0.0205413 0)
(-0.016213 -0.0180561 0)
(-0.011157 -0.0150418 0)
(-0.0068932 -0.0116272 0)
(-0.00353669 -0.00799547 0)
(-0.00122792 -0.00439546 0)
(-0.000178979 -0.00117917 0)
(-0.000234274 0.00203142 0)
(-0.00154401 0.00669399 0)
(-0.0043568 0.0115052 0)
(-0.00835927 0.0161327 0)
(-0.0133453 0.020338 0)
(-0.0191599 0.0239495 0)
(-0.0256332 0.0268528 0)
(-0.0325868 0.0289805 0)
(-0.0398413 0.0303032 0)
(-0.0472195 0.0308209 0)
(-0.0545498 0.0305561 0)
(-0.0616682 0.0295482 0)
(-0.0684218 0.0278494 0)
(-0.0746698 0.0255213 0)
(-0.0802858 0.0226323 0)
(-0.0851581 0.0192562 0)
(-0.0891916 0.0154705 0)
(-0.0923077 0.0113564 0)
(-0.0944452 0.00699774 0)
(-0.0955609 0.00248126 0)
(-0.09563 -0.00210374 0)
(-0.0946466 -0.00666551 0)
(-0.0926245 -0.0111102 0)
(-0.0895971 -0.0153423 0)
(-0.085618 -0.0192656 0)
(-0.0807614 -0.0227845 0)
(-0.0751217 -0.0258054 0)
(-0.0688127 -0.0282395 0)
(-0.0619674 -0.0300049 0)
(-0.0547358 -0.0310303 0)
(-0.0472829 -0.0312587 0)
(-0.0397854 -0.0306519 0)
(-0.0324285 -0.0291953 0)
(-0.025401 -0.0269038 0)
(-0.0188909 -0.0238277 0)
(-0.0130804 -0.02006 0)
(-0.00813701 -0.015744 0)
(-0.00420635 -0.0110797 0)
(-0.0014738 -0.00633188 0)
(-0.000218379 -0.00186157 0)
(-0.000272219 0.00287492 0)
(-0.00178238 0.00903277 0)
(-0.00500739 0.0151591 0)
(-0.00956779 0.0209241 0)
(-0.0152123 0.0260864 0)
(-0.0217546 0.0304701 0)
(-0.0289976 0.0339574 0)
(-0.0367389 0.0364802 0)
(-0.0447796 0.038011 0)
(-0.0529261 0.0385548 0)
(-0.0609928 0.038142 0)
(-0.0688049 0.0368223 0)
(-0.0761996 0.0346603 0)
(-0.0830285 0.0317315 0)
(-0.0891585 0.0281196 0)
(-0.094473 0.0239144 0)
(-0.098872 0.0192105 0)
(-0.102274 0.0141063 0)
(-0.104613 0.00870396 0)
(-0.105846 0.00310866 0)
(-0.105944 -0.00257124 0)
(-0.104901 -0.00822441 0)
(-0.10273 -0.0137369 0)
(-0.099464 -0.0189927 0)
(-0.0951578 -0.0238749 0)
(-0.0898874 -0.0282667 0)
(-0.0837503 -0.0320541 0)
(-0.0768653 -0.0351279 0)
(-0.0693719 -0.0373876 0)
(-0.0614288 -0.0387446 0)
(-0.0532119 -0.0391274 0)
(-0.044912 -0.0384864 0)
(-0.0367305 -0.0367998 0)
(-0.0288761 -0.0340797 0)
(-0.0215597 -0.0303784 0)
(-0.0149904 -0.0257957 0)
(-0.00936529 -0.0204854 0)
(-0.00486234 -0.0146605 0)
(-0.00171153 -0.00859789 0)
(-0.000255439 -0.00266632 0)
(-0.000308482 0.00383735 0)
(-0.00201363 0.0116914 0)
(-0.00564298 0.0192939 0)
(-0.0107542 0.0263186 0)
(-0.0170515 0.0325246 0)
(-0.0243171 0.0377365 0)
(-0.0323252 0.0418375 0)
(-0.0408488 0.0447629 0)
(-0.0496683 0.0464909 0)
(-0.0585733 0.0470348 0)
(-0.0673646 0.0464355 0)
(-0.0758561 0.0447555 0)
(-0.0838766 0.0420736 0)
(-0.091271 0.0384809 0)
(-0.0979007 0.0340774 0)
(-0.103645 0.0289702 0)
(-0.1084 0.0232716 0)
(-0.112082 0.0170981 0)
(-0.114624 0.0105702 0)
(-0.115977 0.00381226 0)
(-0.116115 -0.00304806 0)
(-0.115027 -0.00987943 0)
(-0.112725 -0.0165473 0)
(-0.109243 -0.0229146 0)
(-0.104633 -0.0288424 0)
(-0.0989729 -0.0341923 0)
(-0.0923615 -0.038828 0)
(-0.0849209 -0.0426185 0)
(-0.0767959 -0.0454422 0)
(-0.0681529 -0.0471912 0)
(-0.0591784 -0.0477765 0)
(-0.0500767 -0.0471342 0)
(-0.0410666 -0.0452319 0)
(-0.0323775 -0.0420753 0)
(-0.0242453 -0.0377152 0)
(-0.0169077 -0.0322544 0)
(-0.0105938 -0.0258539 0)
(-0.00551502 -0.0187363 0)
(-0.00194614 -0.0111893 0)
(-0.000291399 -0.00359003 0)
(-0.000343968 0.0049158 0)
(-0.00224151 0.0146645 0)
(-0.00627155 0.0239039 0)
(-0.0119303 0.0323113 0)
(-0.0188782 0.0396492 0)
(-0.0268653 0.0457456 0)
(-0.0356363 0.0504895 0)
(-0.0449388 0.0538236 0)
(-0.0545316 0.0557359 0)
(-0.0641872 0.0562516 0)
(-0.0736927 0.0554253 0)
(-0.0828515 0.0533349 0)
(-0.0914845 0.0500757 0)
(-0.0994306 0.0457561 0)
(-0.106547 0.0404939 0)
(-0.11271 0.0344144 0)
(-0.117815 0.0276481 0)
(-0.121773 0.0203301 0)
(-0.124517 0.0125997 0)
(-0.125999 0.00460011 0)
(-0.126186 -0.00352144 0)
(-0.125069 -0.0116136 0)
(-0.122657 -0.0195211 0)
(-0.11898 -0.0270852 0)
(-0.114091 -0.0341449 0)
(-0.108066 -0.0405386 0)
(-0.101003 -0.0461065 0)
(-0.0930271 -0.050694 0)
(-0.0842863 -0.0541562 0)
(-0.0749537 -0.0563628 0)
(-0.0652258 -0.0572044 0)
(-0.0553205 -0.056599 0)
(-0.0454745 -0.0544997 0)
(-0.0359392 -0.0509017 0)
(-0.0269769 -0.0458502 0)
(-0.0188563 -0.0394473 0)
(-0.0118403 -0.0318577 0)
(-0.00617565 -0.0233118 0)
(-0.00218271 -0.0141074 0)
(-0.000327376 -0.00463218 0)
(-0.000379464 0.00610948 0)
(-0.00246948 0.0179505 0)
(-0.0069007 0.0289878 0)
(-0.0131081 0.0389017 0)
(-0.0207078 0.0474595 0)
(-0.029417 0.0544966 0)
(-0.0389505 0.0599114 0)
(-0.0490291 0.0636584 0)
(-0.0593898 0.0657397 0)
(-0.0697876 0.0661963 0)
(-0.0799961 0.0651003 0)
(-0.0898088 0.0625478 0)
(-0.0990394 0.0586532 0)
(-0.107522 0.053544 0)
(-0.115112 0.0473575 0)
(-0.121682 0.0402379 0)
(-0.127126 0.0323346 0)
(-0.131357 0.0238014 0)
(-0.134306 0.0147964 0)
(-0.135921 0.00548131 0)
(-0.13617 -0.00397729 0)
(-0.135042 -0.0134084 0)
(-0.132541 -0.0226361 0)
(-0.128695 -0.0314801 0)
(-0.123554 -0.0397569 0)
(-0.117191 -0.0472808 0)
(-0.109704 -0.0538672 0)
(-0.101215 -0.0593359 0)
(-0.0918769 -0.0635162 0)
(-0.0818671 -0.0662523 0)
(-0.0713914 -0.0674104 0)
(-0.0606809 -0.0668863 0)
(-0.0499904 -0.064614 0)
(-0.0395947 -0.0605737 0)
(-0.0297842 -0.0548004 0)
(-0.0208607 -0.0473913 0)
(-0.013123 -0.0385119 0)
(-0.00685544 -0.0283985 0)
(-0.00242611 -0.0173591 0)
(-0.000364384 -0.00579497 0)
(-0.000415589 0.00741928 0)
(-0.00270058 0.0215515 0)
(-0.00753735 0.0345484 0)
(-0.0142984 0.0460927 0)
(-0.0225544 0.0559581 0)
(-0.0319888 0.0639906 0)
(-0.0422849 0.070102 0)
(-0.0531364 0.0742631 0)
(-0.0642578 0.0764948 0)
(-0.0753866 0.0768582 0)
(-0.0862833 0.0754468 0)
(-0.0967321 0.0723786 0)
(-0.106541 0.0677895 0)
(-0.115541 0.0618286 0)
(-0.123584 0.0546538 0)
(-0.130546 0.0464293 0)
(-0.136319 0.0373238 0)
(-0.140815 0.0275099 0)
(-0.143967 0.0171637 0)
(-0.145723 0.0064654 0)
(-0.146047 -0.00440022 0)
(-0.144926 -0.0152431 0)
(-0.142361 -0.0258673 0)
(-0.138376 -0.0360714 0)
(-0.133016 -0.0456488 0)
(-0.126349 -0.0543896 0)
(-0.118469 -0.0620829 0)
(-0.109497 -0.0685212 0)
(-0.0995862 -0.0735048 0)
(-0.0889171 -0.076849 0)
(-0.0777033 -0.0783914 0)
(-0.0661888 -0.0780008 0)
(-0.0546466 -0.0755867 0)
(-0.0433754 -0.0711089 0)
(-0.0326957 -0.064587 0)
(-0.0229444 -0.0561091 0)
(-0.0144593 -0.045838 0)
(-0.00756519 -0.0340142 0)
(-0.00268093 -0.0209566 0)
(-0.000403345 -0.0070831 0)
(-0.000452867 0.00884758 0)
(-0.00293747 0.0254727 0)
(-0.00818772 0.0405924 0)
(-0.015511 0.0538907 0)
(-0.0244307 0.06515 0)
(-0.0345946 0.0742297 0)
(-0.0456534 0.0810594 0)
(-0.0572724 0.0856315 0)
(-0.0691436 0.0879902 0)
(-0.0809869 0.088222 0)
(-0.0925506 0.0864461 0)
(-0.103611 0.0828058 0)
(-0.113971 0.0774621 0)
(-0.123461 0.0705877 0)
(-0.131932 0.0623627 0)
(-0.139262 0.0529722 0)
(-0.145346 0.0426045 0)
(-0.150098 0.0314505 0)
(-0.153449 0.0197038 0)
(-0.155349 0.00756174 0)
(-0.155762 -0.00477357 0)
(-0.154669 -0.0170942 0)
(-0.15207 -0.0291854 0)
(-0.14798 -0.0408252 0)
(-0.14244 -0.0517844 0)
(-0.13551 -0.0618282 0)
(-0.127279 -0.0707188 0)
(-0.117865 -0.0782187 0)
(-0.107415 -0.084097 0)
(-0.0961127 -0.0881358 0)
(-0.0841783 -0.0901394 0)
(-0.0718669 -0.0899439 0)
(-0.0594692 -0.0874283 0)
(-0.0473086 -0.0825258 0)
(-0.0357372 -0.0752346 0)
(-0.0251297 -0.0656284 0)
(-0.015866 -0.0538637 0)
(-0.00831509 -0.0401834 0)
(-0.00295143 -0.0249172 0)
(-0.000445089 -0.00850355 0)
(-0.000491773 0.0103981 0)
(-0.00318256 0.0297224 0)
(-0.00885749 0.0471297 0)
(-0.016755 0.0623053 0)
(-0.0263479 0.0750419 0)
(-0.037246 0.085216 0)
(-0.0490659 0.0927802 0)
(-0.0614435 0.0977535 0)
(-0.0740476 0.10021 0)
(-0.0865814 0.100265 0)
(-0.0987815 0.0980709 0)
(-0.110418 0.0937991 0)
(-0.121292 0.0876393 0)
(-0.131232 0.0797902 0)
(-0.140096 0.0704558 0)
(-0.147763 0.0598429 0)
(-0.154131 0.0481592 0)
(-0.15912 0.0356134 0)
(-0.162662 0.0224155 0)
(-0.164709 0.0087786 0)
(-0.165223 -0.00507967 0)
(-0.164182 -0.0189353 0)
(-0.16158 -0.0325561 0)
(-0.157428 -0.0457008 0)
(-0.151756 -0.0581186 0)
(-0.144617 -0.0695499 0)
(-0.136089 -0.0797288 0)
(-0.126283 -0.0883864 0)
(-0.115341 -0.095257 0)
(-0.103446 -0.100086 0)
(-0.0908195 -0.102638 0)
(-0.0777272 -0.102711 0)
(-0.0644768 -0.100146 0)
(-0.0514165 -0.0948422 0)
(-0.0389313 -0.0867696 0)
(-0.0274366 -0.0759812 0)
(-0.0173586 -0.0626226 0)
(-0.00911477 -0.0469363 0)
(-0.00324166 -0.0292632 0)
(-0.000490385 -0.0100655 0)
(-0.000532738 0.0120757 0)
(-0.00343816 0.0343114 0)
(-0.00955202 0.0541734 0)
(-0.0180385 0.0713483 0)
(-0.0283156 0.0856413 0)
(-0.0399524 0.0969507 0)
(-0.0525288 0.105257 0)
(-0.0656501 0.110613 0)
(-0.078962 0.113128 0)
(-0.0921513 0.112956 0)
(-0.104945 0.110283 0)
(-0.117109 0.105316 0)
(-0.128444 0.0982767 0)
(-0.138783 0.0893925 0)
(-0.147989 0.078893 0)
(-0.155947 0.067007 0)
(-0.162563 0.0539615 0)
(-0.167761 0.0399819 0)
(-0.17148 0.0252932 0)
(-0.173671 0.0101222 0)
(-0.174297 -0.00530023 0)
(-0.173333 -0.0207363 0)
(-0.170767 -0.0359388 0)
(-0.166602 -0.0506489 0)
(-0.160858 -0.0645956 0)
(-0.153574 -0.0774951 0)
(-0.144819 -0.0890528 0)
(-0.134689 -0.098967 0)
(-0.12332 -0.106934 0)
(-0.110887 -0.112658 0)
(-0.0976131 -0.115859 0)
(-0.0837694 -0.116288 0)
(-0.0696791 -0.11374 0)
(-0.0557152 -0.108073 0)
(-0.042297 -0.0992186 0)
(-0.0298835 -0.0872024 0)
(-0.0189515 -0.0721529 0)
(-0.00997351 -0.0543089 0)
(-0.0035556 -0.0340218 0)
(-0.000540007 -0.0117802 0)
(-0.00057621 0.0138865 0)
(-0.00370662 0.0392531 0)
(-0.0102768 0.0617396 0)
(-0.0193697 0.0810336 0)
(-0.0303431 0.0969562 0)
(-0.0427213 0.109433 0)
(-0.0560448 0.118478 0)
(-0.069887 0.124187 0)
(-0.0838701 0.126711 0)
(-0.097666 0.126248 0)
(-0.110994 0.123028 0)
(-0.123619 0.117298 0)
(-0.135344 0.109314 0)
(-0.146012 0.0993353 0)
(-0.155492 0.0876192 0)
(-0.16368 0.0744166 0)
(-0.170493 0.0599735 0)
(-0.175862 0.0445304 0)
(-0.179733 0.0283252 0)
(-0.18206 0.0115956 0)
(-0.182807 -0.00541698 0)
(-0.181947 -0.0224641 0)
(-0.179461 -0.0392863 0)
(-0.175341 -0.0556103 0)
(-0.169595 -0.0711466 0)
(-0.162249 -0.0855886 0)
(-0.153353 -0.0986134 0)
(-0.142989 -0.109885 0)
(-0.131278 -0.119059 0)
(-0.118385 -0.125793 0)
(-0.104526 -0.129757 0)
(-0.089978 -0.130646 0)
(-0.0750751 -0.128201 0)
(-0.0602139 -0.122226 0)
(-0.045849 -0.112606 0)
(-0.0324862 -0.0993283 0)
(-0.0206586 -0.0824969 0)
(-0.0109004 -0.0623421 0)
(-0.00389726 -0.0392242 0)
(-0.000594775 -0.013661 0)
(-0.000622715 0.0158379 0)
(-0.00399062 0.0445639 0)
(-0.0110378 0.0698472 0)
(-0.0207572 0.0913767 0)
(-0.0324396 0.108994 0)
(-0.0455591 0.122656 0)
(-0.0596135 0.132424 0)
(-0.0741428 0.138439 0)
(-0.0887461 0.140907 0)
(-0.103082 0.14008 0)
(-0.116865 0.136235 0)
(-0.129862 0.129666 0)
(-0.141886 0.12067 0)
(-0.152788 0.10954 0)
(-0.162453 0.0965608 0)
(-0.170791 0.0820076 0)
(-0.177732 0.0661432 0)
(-0.183219 0.0492218 0)
(-0.187207 0.0314912 0)
(-0.189655 0.0131971 0)
(-0.19053 -0.0054125 0)
(-0.189801 -0.0240822 0)
(-0.187442 -0.0425444 0)
(-0.183436 -0.0605146 0)
(-0.177773 -0.077688 0)
(-0.170462 -0.0937373 0)
(-0.161534 -0.108312 0)
(-0.151049 -0.121042 0)
(-0.139107 -0.131539 0)
(-0.125856 -0.13941 0)
(-0.111503 -0.144266 0)
(-0.0963203 -0.14574 0)
(-0.0806513 -0.143506 0)
(-0.0649136 -0.137301 0)
(-0.0495975 -0.126952 0)
(-0.035259 -0.112395 0)
(-0.0224931 -0.0936998 0)
(-0.0119048 -0.0710815 0)
(-0.0042708 -0.0449064 0)
(-0.00065556 -0.0157234 0)
(-0.0006729 0.0179386 0)
(-0.00429339 0.0502633 0)
(-0.0118422 0.0785182 0)
(-0.0222114 0.102395 0)
(-0.0346152 0.121759 0)
(-0.0484717 0.13661 0)
(-0.0632318 0.147063 0)
(-0.0784003 0.153319 0)
(-0.0935539 0.15565 0)
(-0.10834 0.154367 0)
(-0.122474 0.149808 0)
(-0.135728 0.142318 0)
(-0.14793 0.132239 0)
(-0.158947 0.119902 0)
(-0.168683 0.105622 0)
(-0.177068 0.0896952 0)
(-0.184048 0.0724012 0)
(-0.189583 0.0540049 0)
(-0.193639 0.034761 0)
(-0.196184 0.0149188 0)
(-0.197187 -0.00527127 0)
(-0.196615 -0.0255518 0)
(-0.194437 -0.0456514 0)
(-0.190621 -0.0652793 0)
(-0.185141 -0.0841195 0)
(-0.177985 -0.101827 0)
(-0.169157 -0.118027 0)
(-0.158691 -0.132312 0)
(-0.146659 -0.144252 0)
(-0.133187 -0.153397 0)
(-0.11846 -0.159293 0)
(-0.102742 -0.161499 0)
(-0.0863794 -0.15961 0)
(-0.0698061 -0.153282 0)
(-0.0535478 -0.142267 0)
(-0.0382138 -0.126435 0)
(-0.024468 -0.105809 0)
(-0.0129962 -0.0805773 0)
(-0.00468079 -0.0511088 0)
(-0.000723311 -0.017985 0)
(-0.000727623 0.0201996 0)
(-0.00461914 0.0563746 0)
(-0.0126994 0.0877786 0)
(-0.0237449 0.114106 0)
(-0.0368823 0.135255 0)
(-0.0514655 0.151277 0)
(-0.066894 0.162353 0)
(-0.0826357 0.168761 0)
(-0.0982463 0.170847 0)
(-0.113366 0.168999 0)
(-0.127715 0.163622 0)
(-0.14108 0.155121 0)
(-0.153306 0.143887 0)
(-0.164287 0.130292 0)
(-0.173951 0.114681 0)
(-0.182251 0.0973716 0)
(-0.189158 0.0786577 0)
(-0.194651 0.0588119 0)
(-0.19871 0.0380915 0)
(-0.201316 0.0167447 0)
(-0.202441 -0.00498105 0)
(-0.202053 -0.0268318 0)
(-0.200112 -0.0485386 0)
(-0.196573 -0.0698095 0)
(-0.191393 -0.0903229 0)
(-0.184531 -0.109721 0)
(-0.175963 -0.127606 0)
(-0.165688 -0.143539 0)
(-0.153744 -0.157043 0)
(-0.140223 -0.167609 0)
(-0.125282 -0.174711 0)
(-0.109166 -0.177822 0)
(-0.0922132 -0.176444 0)
(-0.0748718 -0.170135 0)
(-0.0576995 -0.158551 0)
(-0.0413612 -0.141477 0)
(-0.0265969 -0.118871 0)
(-0.0141854 -0.0908838 0)
(-0.00513245 -0.057877 0)
(-0.000799185 -0.0204662 0)
(-0.000788041 0.0226339 0)
(-0.00497354 0.0629264 0)
(-0.0136214 0.0976592 0)
(-0.0253745 0.126531 0)
(-0.0392569 0.149481 0)
(-0.0545486 0.166627 0)
(-0.0705922 0.178234 0)
(-0.0868178 0.184671 0)
(-0.102762 0.18638 0)
(-0.118065 0.183835 0)
(-0.132456 0.17752 0)
(-0.145746 0.167907 0)
(-0.157807 0.155445 0)
(-0.168564 0.140546 0)
(-0.177978 0.123585 0)
(-0.186033 0.104902 0)
(-0.192728 0.0847998 0)
(-0.198065 0.063556 0)
(-0.202046 0.0414251 0)
(-0.204662 0.0186489 0)
(-0.205896 -0.00453437 0)
(-0.205713 -0.0278808 0)
(-0.204069 -0.0511305 0)
(-0.200905 -0.0739976 0)
(-0.196154 -0.0961612 0)
(-0.189749 -0.117257 0)
(-0.181629 -0.136869 0)
(-0.171753 -0.15453 0)
(-0.160116 -0.169717 0)
(-0.146763 -0.181859 0)
(-0.131814 -0.190351 0)
(-0.11548 -0.194569 0)
(-0.0980849 -0.193905 0)
(-0.0800779 -0.187799 0)
(-0.0620457 -0.175785 0)
(-0.0447097 -0.157541 0)
(-0.0288942 -0.132934 0)
(-0.0154847 -0.102059 0)
(-0.00563208 -0.0652618 0)
(-0.00088463 -0.0231901 0)
(-0.000855772 0.0252583 0)
(-0.00536435 0.0699542 0)
(-0.0146251 0.108197 0)
(-0.0271226 0.139692 0)
(-0.0417598 0.164431 0)
(-0.0577308 0.182618 0)
(-0.0743155 0.194622 0)
(-0.0909056 0.20093 0)
(-0.107024 0.202093 0)
(-0.122316 0.198692 0)
(-0.136534 0.191301 0)
(-0.149518 0.18047 0)
(-0.16118 0.166704 0)
(-0.171485 0.150462 0)
(-0.180434 0.132148 0)
(-0.188049 0.11212 0)
(-0.194363 0.0906884 0)
(-0.199408 0.0681286 0)
(-0.203207 0.0446874 0)
(-0.205769 0.0205938 0)
(-0.207087 -0.00393028 0)
(-0.207128 -0.0286581 0)
(-0.205842 -0.0533466 0)
(-0.203156 -0.0777239 0)
(-0.198981 -0.101478 0)
(-0.193217 -0.124245 0)
(-0.185764 -0.145601 0)
(-0.176533 -0.165051 0)
(-0.165465 -0.182032 0)
(-0.15255 -0.19591 0)
(-0.137853 -0.205994 0)
(-0.12154 -0.211552 0)
(-0.1039 -0.211848 0)
(-0.0853747 -0.206178 0)
(-0.066571 -0.193928 0)
(-0.0482663 -0.174633 0)
(-0.0313761 -0.148042 0)
(-0.0169091 -0.114166 0)
(-0.00618751 -0.0733208 0)
(-0.000981471 -0.0261838 0)
(-0.000933128 0.0280941 0)
(-0.00580238 0.0775032 0)
(-0.015733 0.119438 0)
(-0.0290191 0.153613 0)
(-0.0444182 0.180091 0)
(-0.0610242 0.199188 0)
(-0.0780482 0.211409 0)
(-0.0948452 0.217379 0)
(-0.110931 0.217789 0)
(-0.125969 0.213342 0)
(-0.139742 0.204718 0)
(-0.152138 0.192551 0)
(-0.163118 0.17741 0)
(-0.172697 0.159797 0)
(-0.180925 0.140147 0)
(-0.187871 0.118829 0)
(-0.193605 0.0961568 0)
(-0.198194 0.0723983 0)
(-0.201688 0.0477857 0)
(-0.204116 0.0225281 0)
(-0.205481 -0.00317608 0)
(-0.205758 -0.0291256 0)
(-0.20489 -0.0551025 0)
(-0.202791 -0.0808584 0)
(-0.19935 -0.106099 0)
(-0.194433 -0.130472 0)
(-0.187896 -0.153552 0)
(-0.179595 -0.174827 0)
(-0.16941 -0.193698 0)
(-0.15726 -0.20947 0)
(-0.14314 -0.221361 0)
(-0.127149 -0.228524 0)
(-0.109528 -0.230072 0)
(-0.0906904 -0.225131 0)
(-0.0712499 -0.212903 0)
(-0.0520358 -0.192741 0)
(-0.0340615 -0.164233 0)
(-0.0184772 -0.127272 0)
(-0.00680891 -0.0821195 0)
(-0.00109212 -0.0294791 0)
(-0.0010234 0.0311695 0)
(-0.00630268 0.0856312 0)
(-0.0169762 0.131438 0)
(-0.0311042 0.168321 0)
(-0.047267 0.196438 0)
(-0.064442 0.216254 0)
(-0.081766 0.228443 0)
(-0.0985623 0.233812 0)
(-0.114351 0.233214 0)
(-0.128827 0.2275 0)
(-0.141825 0.217467 0)
(-0.153292 0.203842 0)
(-0.163251 0.187259 0)
(-0.171782 0.168266 0)
(-0.178992 0.147319 0)
(-0.185001 0.124797 0)
(-0.189926 0.10101 0)
(-0.193871 0.0762098 0)
(-0.196915 0.0506081 0)
(-0.199111 0.0243862 0)
(-0.200476 -0.002289 0)
(-0.20099 -0.0292499 0)
(-0.200596 -0.0563131 0)
(-0.199197 -0.0832631 0)
(-0.196657 -0.109835 0)
(-0.192811 -0.135698 0)
(-0.187467 -0.160436 0)
(-0.180422 -0.183535 0)
(-0.171483 -0.204366 0)
(-0.160487 -0.222179 0)
(-0.14734 -0.236103 0)
(-0.132055 -0.245164 0)
(-0.114796 -0.248308 0)
(-0.095924 -0.24446 0)
(-0.0760422 -0.232593 0)
(-0.0560203 -0.211828 0)
(-0.0369734 -0.181537 0)
(-0.0202132 -0.141448 0)
(-0.00750985 -0.0917336 0)
(-0.0012199 -0.0331136 0)
(-0.00113131 0.0345218 0)
(-0.00688638 0.0944137 0)
(-0.018397 0.144269 0)
(-0.0334304 0.183844 0)
(-0.0503495 0.213432 0)
(-0.0679957 0.233694 0)
(-0.0854294 0.245528 0)
(-0.101952 0.249961 0)
(-0.117106 0.24805 0)
(-0.130639 0.240812 0)
(-0.142457 0.229178 0)
(-0.152585 0.213972 0)
(-0.161128 0.195896 0)
(-0.168238 0.175534 0)
(-0.174091 0.153363 0)
(-0.178863 0.12976 0)
(-0.182722 0.105024 0)
(-0.185811 0.0793853 0)
(-0.188243 0.0530243 0)
(-0.190092 0.0260874 0)
(-0.191395 -0.00129755 0)
(-0.19214 -0.0290052 0)
(-0.19227 -0.0568956 0)
(-0.191678 -0.0847965 0)
(-0.190213 -0.112484 0)
(-0.187673 -0.139661 0)
(-0.183822 -0.165938 0)
(-0.178394 -0.190808 0)
(-0.171115 -0.21363 0)
(-0.161729 -0.233609 0)
(-0.150033 -0.249791 0)
(-0.135927 -0.261067 0)
(-0.119468 -0.266203 0)
(-0.100934 -0.263888 0)
(-0.0808867 -0.252819 0)
(-0.0602169 -0.231818 0)
(-0.0401396 -0.19997 0)
(-0.0221493 -0.156771 0)
(-0.00830891 -0.102252 0)
(-0.00136946 -0.0371339 0)
(-0.0012638 0.0382016 0)
(-0.00758333 0.10395 0)
(-0.0200531 0.158018 0)
(-0.0360662 0.200209 0)
(-0.0537159 0.231008 0)
(-0.0716883 0.251341 0)
(-0.0889703 0.262398 0)
(-0.10486 0.265484 0)
(-0.118949 0.261896 0)
(-0.131067 0.252845 0)
(-0.141218 0.239408 0)
(-0.14953 0.222508 0)
(-0.156201 0.202907 0)
(-0.16147 0.181224 0)
(-0.165588 0.15794 0)
(-0.168795 0.133425 0)
(-0.171309 0.107955 0)
(-0.173313 0.0817279 0)
(-0.174954 0.0548876 0)
(-0.176331 0.0275372 0)
(-0.177497 -0.000242265 0)
(-0.178454 -0.0283753 0)
(-0.179146 -0.0567739 0)
(-0.179465 -0.085319 0)
(-0.17924 -0.113839 0)
(-0.178246 -0.142086 0)
(-0.176202 -0.169712 0)
(-0.17278 -0.196238 0)
(-0.167622 -0.221027 0)
(-0.160366 -0.243256 0)
(-0.150684 -0.261902 0)
(-0.138334 -0.275726 0)
(-0.12323 -0.283299 0)
(-0.105523 -0.283043 0)
(-0.0856908 -0.273323 0)
(-0.0646139 -0.252584 0)
(-0.0435946 -0.219529 0)
(-0.0243284 -0.173323 0)
(-0.00923222 -0.113782 0)
(-0.00154753 -0.0415981 0)
(-0.00143121 0.0422784 0)
(-0.00843615 0.114374 0)
(-0.022023 0.172797 0)
(-0.0390981 0.217437 0)
(-0.0574198 0.249059 0)
(-0.0755015 0.268955 0)
(-0.0922709 0.278696 0)
(-0.107055 0.279933 0)
(-0.119534 0.27425 0)
(-0.12966 0.263074 0)
(-0.137567 0.247634 0)
(-0.143508 0.228947 0)
(-0.147795 0.20783 0)
(-0.150763 0.184917 0)
(-0.152743 0.160683 0)
(-0.154038 0.135477 0)
(-0.154915 0.109539 0)
(-0.155598 0.0830279 0)
(-0.156263 0.0560404 0)
(-0.157033 0.0286299 0)
(-0.15798 0.000824578 0)
(-0.159117 -0.0273562 0)
(-0.160397 -0.0558838 0)
(-0.161711 -0.0847009 0)
(-0.162882 -0.1137 0)
(-0.163664 -0.142696 0)
(-0.16374 -0.171401 0)
(-0.162727 -0.199384 0)
(-0.160184 -0.226038 0)
(-0.155638 -0.250541 0)
(-0.148618 -0.271817 0)
(-0.138714 -0.288516 0)
(-0.125654 -0.29901 0)
(-0.109409 -0.301427 0)
(-0.0903127 -0.293741 0)
(-0.0691827 -0.273923 0)
(-0.0473788 -0.240174 0)
(-0.0268093 -0.191189 0)
(-0.0103173 -0.126455 0)
(-0.00176417 -0.0465812 0)
(-0.00164941 0.0468493 0)
(-0.00950639 0.12586 0)
(-0.0244129 0.188738 0)
(-0.0426317 0.23553 0)
(-0.0615065 0.267415 0)
(-0.0793711 0.286197 0)
(-0.0951273 0.293944 0)
(-0.108184 0.292737 0)
(-0.118369 0.28449 0)
(-0.125804 0.270867 0)
(-0.130793 0.253246 0)
(-0.133739 0.232727 0)
(-0.135084 0.210156 0)
(-0.135266 0.186166 0)
(-0.134692 0.161209 0)
(-0.133726 0.135593 0)
(-0.132681 0.109512 0)
(-0.131813 0.0830738 0)
(-0.131322 0.0563216 0)
(-0.131353 0.0292537 0)
(-0.131992 0.00184064 0)
(-0.133265 -0.0259584 0)
(-0.135139 -0.0541788 0)
(-0.137511 -0.0828317 0)
(-0.140205 -0.111882 0)
(-0.142968 -0.141224 0)
(-0.145459 -0.170645 0)
(-0.14725 -0.199788 0)
(-0.147829 -0.228108 0)
(-0.146614 -0.254813 0)
(-0.142983 -0.278816 0)
(-0.136332 -0.298681 0)
(-0.126159 -0.312596 0)
(-0.112189 -0.318382 0)
(-0.0945319 -0.313561 0)
(-0.0738618 -0.295527 0)
(-0.051537 -0.261812 0)
(-0.0296719 -0.210455 0)
(-0.0116189 -0.140434 0)
(-0.0020349 -0.0521831 0)
(-0.00194351 0.0520521 0)
(-0.0108845 0.138646 0)
(-0.0273656 0.205998 0)
(-0.046788 0.254445 0)
(-0.0659904 0.2858 0)
(-0.0831432 0.302577 0)
(-0.0971901 0.307497 0)
(-0.107706 0.30316 0)
(-0.114744 0.291855 0)
(-0.118657 0.275483 0)
(-0.119961 0.255557 0)
(-0.119234 0.233229 0)
(-0.117055 0.209349 0)
(-0.113962 0.184518 0)
(-0.110435 0.159139 0)
(-0.106887 0.133463 0)
(-0.103662 0.107623 0)
(-0.101039 0.0816674 0)
(-0.0992336 0.0555794 0)
(-0.0984035 0.0292987 0)
(-0.0986473 0.002737 0)
(-0.100006 -0.0242079 0)
(-0.102458 -0.0516366 0)
(-0.105917 -0.079632 0)
(-0.11022 -0.108239 0)
(-0.11512 -0.137438 0)
(-0.120273 -0.167112 0)
(-0.125228 -0.197005 0)
(-0.129419 -0.226664 0)
(-0.132168 -0.255375 0)
(-0.132708 -0.282086 0)
(-0.130225 -0.305327 0)
(-0.123945 -0.32314 0)
(-0.113276 -0.333046 0)
(-0.0979996 -0.332076 0)
(-0.0785267 -0.316926 0)
(-0.0561094 -0.284262 0)
(-0.0330244 -0.231198 0)